chemcompute.org
{'UTCtimestamp': '2022-10-03T21:45:51.814624', 'cluster': 'jetstream2', 'clusterJobNumber': '120489', 'status': 'RUNNING', 'nodeList': 'chemcompute-node-1'}
----- GAMESS execution script 'rungms' -----
This job is running on host chemcompute-node-1.novalocal
under operating system Linux at Mon Oct 3 21:45:55 UTC 2022
SLURM has assigned the following compute nodes to this run:
Available scratch disk space (Kbyte units) at beginning of the job is
Filesystem     1K-blocks     Used Available Use% Mounted on
/dev/sda1       62903276 11515356  51387920  19% /
GAMESS temporary binary files will be written to /scratch/120489
GAMESS supplementary output files will be written to /data/slurm/46/460058
Copying input file 460058.inp to your run's scratch directory...
The generated host list is
chemcompute-node-1.novalocal

 Distributed Data Interface kickoff program.
 Initiating 1 compute processes on 1 nodes to run the following command:
 /data/gamess-2019R1-avx2-ddi/gamess.00.x 460058 

          ******************************************************
          *         GAMESS VERSION = 30 JUN 2019 (R1)          *
          *             FROM IOWA STATE UNIVERSITY             *
          * M.W.SCHMIDT, K.K.BALDRIDGE, J.A.BOATZ, S.T.ELBERT, *
          *   M.S.GORDON, J.H.JENSEN, S.KOSEKI, N.MATSUNAGA,   *
          *          K.A.NGUYEN, S.J.SU, T.L.WINDUS,           *
          *       TOGETHER WITH M.DUPUIS, J.A.MONTGOMERY       *
          *         J.COMPUT.CHEM.  14, 1347-1363(1993)        *
          **************** 64 BIT INTEL VERSION ****************

  SINCE 1993, STUDENTS AND POSTDOCS WORKING AT IOWA STATE UNIVERSITY
  AND ALSO IN THEIR VARIOUS JOBS AFTER LEAVING ISU HAVE MADE IMPORTANT
  CONTRIBUTIONS TO THE CODE:
     IVANA ADAMOVIC, CHRISTINE AIKENS, YURI ALEXEEV, POOJA ARORA,
     ANDREY ASADCHEV, ROB BELL, PRADIPTA BANDYOPADHYAY, JONATHAN BENTZ,
     COLLEEN BERTONI, BRETT BODE, KURT BRORSEN, CALEB CARLIN, GALINA CHABAN,
     WEI CHEN, CHEOL HO CHOI, PAUL DAY, ALBERT DEFUSCO, NUWAN DESILVA,
     TIM DUDLEY, DMITRI FEDOROV, ALEX FINDLATER, GRAHAM FLETCHER, 
     MARK FREITAG, KURT GLAESEMANN, ANASTASIA GUNINA,
     DAN KEMP, GRANT MERRILL, NORIYUKI MINEZAWA, JONATHAN MULLIN,
     TAKESHI NAGATA, SEAN NEDD, HEATHER NETZLOFF, BOSILJKA NJEGIC, RYAN OLSON,
     MIKE PAK, BUU PHAM,
     SPENCER PRUITT, LUKE ROSKOP, JIM SHOEMAKER, LYUDMILA SLIPCHENKO,
     TONY SMITH, SAROM SOK LEANG, JIE SONG, TETSUYA TAKETSUGU, SIMON WEBB,
     PENG XU, SOOHAENG YOO, FEDERICO ZAHARIEV

  ADDITIONAL CODE HAS BEEN PROVIDED BY COLLABORATORS IN OTHER GROUPS:
     IOWA STATE UNIVERSITY:
          JOE IVANIC, AARON WEST, LAIMUTIS BYTAUTAS, KLAUS RUEDENBERG
     UNIVERSITY OF TOKYO: KIMIHIKO HIRAO, TAKAHITO NAKAJIMA,
          TAKAO TSUNEDA, MUNEAKI KAMIYA, SUSUMU YANAGISAWA,
          KIYOSHI YAGI, MAHITO CHIBA, SEIKEN TOKURA, NAOAKI KAWAKAMI
     UNIVERSITY OF AARHUS: FRANK JENSEN
     UNIVERSITY OF IOWA: VISVALDAS KAIRYS, HUI LI
     NATIONAL INST. OF STANDARDS AND TECHNOLOGY: WALT STEVENS, DAVID GARMER
     UNIVERSITY OF PISA: BENEDETTA MENNUCCI, JACOPO TOMASI
     UNIVERSITY OF MEMPHIS: HENRY KURTZ, PRAKASHAN KORAMBATH
     UNIVERSITY OF ALBERTA: TOBY ZENG, MARIUSZ KLOBUKOWSKI
     UNIVERSITY OF NEW ENGLAND: MARK SPACKMAN
     MIE UNIVERSITY: HIROAKI UMEDA
     NAT. INST. OF ADVANCED INDUSTRIAL SCIENCE AND TECHNOLOGY: KAZUO KITAURA
     MICHIGAN STATE UNIVERSITY:
          KAROL KOWALSKI, MARTA WLOCH, JEFFREY GOUR, JESSE LUTZ,
          WEI LI, JUN SHEN, J. EMILIANO DEUSTUA, PIOTR PIECUCH
     UNIVERSITY OF MINNESOTA:
          YINAN SHU
     UNIVERSITY OF SILESIA: MONIKA MUSIAL, STANISLAW KUCHARSKI
     FACULTES UNIVERSITAIRES NOTRE-DAME DE LA PAIX:
          OLIVIER QUINET, BENOIT CHAMPAGNE
     UNIVERSITY OF CALIFORNIA - SANTA BARBARA: BERNARD KIRTMAN
     INSTITUTE FOR MOLECULAR SCIENCE:
          KAZUYA ISHIMURA, MICHIO KATOUDA, AND SHIGERU NAGASE
     UNIVERSITY OF NOTRE DAME: ANNA POMOGAEVA, DAN CHIPMAN
     KYUSHU UNIVERSITY:
          HARUYUKI NAKANO,
          FENG LONG GU, JACEK KORCHOWIEC, MARCIN MAKOWSKI, AND YURIKO AOKI,
          HIROTOSHI MORI AND EISAKU MIYOSHI
     PENNSYLVANIA STATE UNIVERSITY:
          TZVETELIN IORDANOV, CHET SWALINA, JONATHAN SKONE,
          SHARON HAMMES-SCHIFFER
     WASEDA UNIVERSITY:
          MASATO KOBAYASHI, TOMOKO AKAMA, TSUGUKI TOUMA,
          TAKESHI YOSHIKAWA, YASUHIRO IKABATA, JUNJI SEINO,
          YUYA NAKAJIMA, HIROMI NAKAI
     NANJING UNIVERSITY: SHUHUA LI
     UNIVERSITY OF NEBRASKA:
          PEIFENG SU, DEJUN SI, NANDUN THELLAMUREGE, YALI WANG, HUI LI
     UNIVERSITY OF ZURICH: ROBERTO PEVERATI, KIM BALDRIDGE
     N. COPERNICUS UNIVERSITY AND JACKSON STATE UNIVERSITY:
          MARIA BARYSZ
     UNIVERSITY OF COPENHAGEN: Jimmy Kromann, CASPER STEINMANN
     TOKYO INSTITUTE OF TECHNOLOGY: HIROYA NAKATA
     NAGOYA UNIVERSITY: YOSHIO NISHIMOTO, STEPHAN IRLE
     MOSCOW STATE UNIVERSITY: VLADIMIR MIRONOV
     A.N.NESMEYANOV INSTITUTE OF ORGANOELEMENT COMPOUNDS OF RUSSIAN ACADEMY OF SCIENCES:
          IGOR S. GERASIMOV

 EXECUTION OF GAMESS BEGUN Mon Oct  3 21:45:55 2022

            ECHO OF THE FIRST FEW INPUT CARDS -
 INPUT CARD>!                                                                               
 INPUT CARD>!   GAMESS Calculation input file                                               
 INPUT CARD>!                                                                               
 INPUT CARD>!                                                                               
 INPUT CARD> $CONTRL SCFTYP=RHF MAXIT=200 RUNTYP=OPTIMIZE                                   
 INPUT CARD>         COORD=UNIQUE MULT=1                                                    
 INPUT CARD>         ICHARG=0                                                               
 INPUT CARD>         DFTTYP=B3LYP                                                           
 INPUT CARD>         MOLPLT=.FALSE. PLTORB=.FALSE.  $END                                    
 INPUT CARD> $SYSTEM TIMLIM=2879 MWORDS=250  $END                                           
 INPUT CARD>                                                                                
 INPUT CARD> $FORCE METHOD=SEMINUM NVIB=2 $END                                              
 INPUT CARD> $STATPT OPTTOL=0.0005 NSTEP=999 $END                                           
 INPUT CARD> $STATPT IHREP=0 HSSEND=.TRUE.  $END                                            
 INPUT CARD>                                                                                
 INPUT CARD> $DFT    METHOD=GRID  NLEB=590  $END                                            
 INPUT CARD>                                                                                
 INPUT CARD> $BASIS  GBASIS=N31 NGAUSS=6                                                    
 INPUT CARD>         NDFUNC=1   NPFUNC=0  $END                                              
 INPUT CARD>                                                                                
 INPUT CARD> $SCF    DIRSCF=.T. $END                                                        
 INPUT CARD> $GUESS  GUESS=HUCKEL  $END                                                     
 INPUT CARD>                                                                                
 INPUT CARD> $DATA                                                                          
 INPUT CARD>                                                                                
 INPUT CARD>  Cs                                                                            
 INPUT CARD>                                                                                
 INPUT CARD>C     6.0    -0.59     0.25     0.00                                            
 INPUT CARD>N     7.0     0.57    -0.31    -0.00                                            
 INPUT CARD>H     1.0    -1.51    -0.37     0.00                                            
 INPUT CARD>H     1.0    -0.72     1.34    -0.00                                            
 INPUT CARD>H     1.0     1.31     0.40    -0.00                                            
 INPUT CARD> $END                                                                           
 INPUT CARD>                                                                                
 INPUT CARD>                                                                                
 INPUT CARD>! Customizations after this line are persisted when using Do More Calculations  
  250000000 WORDS OF MEMORY AVAILABLE

     BASIS OPTIONS
     -------------
     GBASIS=N31          IGAUSS=       6      POLAR=POPN31  
     NDFUNC=       1     NFFUNC=       0     DIFFSP=       F
     NPFUNC=       0      DIFFS=       F     BASNAM=        


     RUN TITLE
     ---------
                                                                                 

 THE POINT GROUP OF THE MOLECULE IS CS      
 THE ORDER OF THE PRINCIPAL AXIS IS     0

 ATOM      ATOMIC                      COORDINATES (BOHR)
           CHARGE         X                   Y                   Z
 C           6.0    -1.1149383328        0.4724314969        0.0000000000
 N           7.0     1.0771438130       -0.5858150562        0.0000000000
 H           1.0    -2.8534862415       -0.6991986155        0.0000000000
 H           1.0    -1.3606027112        2.5322328235        0.0000000000
 H           1.0     2.4755410439        0.7558903951        0.0000000000

          INTERNUCLEAR DISTANCES (ANGS.)
          ------------------------------

                1 C          2 N          3 H          4 H          5 H     

   1 C       0.0000000    1.2880994 *  1.1094143 *  1.0977249 *  1.9059119 *
   2 N       1.2880994 *  0.0000000    2.0808652 *  2.0944212 *  1.0255243 *
   3 H       1.1094143 *  2.0808652 *  0.0000000    1.8836666 *  2.9232345 *
   4 H       1.0977249 *  2.0944212 *  1.8836666 *  0.0000000    2.2370740 *
   5 H       1.9059119 *  1.0255243 *  2.9232345 *  2.2370740 *  0.0000000  

  * ... LESS THAN  3.000


     ATOMIC BASIS SET
     ----------------
 THE CONTRACTED PRIMITIVE FUNCTIONS HAVE BEEN UNNORMALIZED
 THE CONTRACTED BASIS FUNCTIONS ARE NOW NORMALIZED TO UNITY

  SHELL TYPE  PRIMITIVE        EXPONENT          CONTRACTION COEFFICIENT(S)

 C         

      1   S       1          3047.5248800    0.001834737132
      1   S       2           457.3695180    0.014037322813
      1   S       3           103.9486850    0.068842622264
      1   S       4            29.2101553    0.232184443216
      1   S       5             9.2866630    0.467941348435
      1   S       6             3.1639270    0.362311985337

      2   L       7             7.8682723   -0.119332419775    0.068999066591
      2   L       8             1.8812885   -0.160854151696    0.316423960957
      2   L       9             0.5442493    1.143456437840    0.744308290898

      3   L      10             0.1687145    1.000000000000    1.000000000000

      4   D      11             0.8000000    1.000000000000

 N         

      5   S      12          4173.5114600    0.001834772160
      5   S      13           627.4579110    0.013994627002
      5   S      14           142.9020930    0.068586551812
      5   S      15            40.2343293    0.232240873040
      5   S      16            12.8202129    0.469069948082
      5   S      17             4.3904370    0.360455199063

      6   L      18            11.6263619   -0.114961181702    0.067579743878
      6   L      19             2.7162798   -0.169117478561    0.323907295893
      6   L      20             0.7722184    1.145851947027    0.740895139755

      7   L      21             0.2120315    1.000000000000    1.000000000000

      8   D      22             0.8000000    1.000000000000

 H         

      9   S      23            18.7311370    0.033494604338
      9   S      24             2.8253944    0.234726953484
      9   S      25             0.6401217    0.813757326146

     10   S      26             0.1612778    1.000000000000

 H         

     11   S      27            18.7311370    0.033494604338
     11   S      28             2.8253944    0.234726953484
     11   S      29             0.6401217    0.813757326146

     12   S      30             0.1612778    1.000000000000

 H         

     13   S      31            18.7311370    0.033494604338
     13   S      32             2.8253944    0.234726953484
     13   S      33             0.6401217    0.813757326146

     14   S      34             0.1612778    1.000000000000

 TOTAL NUMBER OF BASIS SET SHELLS             =   14
 NUMBER OF CARTESIAN GAUSSIAN BASIS FUNCTIONS =   36
 NUMBER OF ELECTRONS                          =   16
 CHARGE OF MOLECULE                           =    0
 SPIN MULTIPLICITY                            =    1
 NUMBER OF OCCUPIED ORBITALS (ALPHA)          =    8
 NUMBER OF OCCUPIED ORBITALS (BETA )          =    8
 TOTAL NUMBER OF ATOMS                        =    5
 THE NUCLEAR REPULSION ENERGY IS       32.5339984469

 SELECTED MURRAY-HANDY-LAMING RADIAL GRID

 LEGACY BECKE'S FUZZY CELL METHOD

 SELECTED ORIGINAL BECKE'S PARTITION FUNCTION

     LEBEDEV GRID-BASED DFT OPTIONS
     ------------------------------
     DFTTYP=B3LYP   
     NRAD  =      96     NLEB  =     590
     NRAD0 =      24     NLEB0 =     110
     SWOFF =    5.00E-03 (PURE SCF -> DFT)
     SWITCH=    3.00E-04 (COARSE -> TIGHT GRID)
     THRESH=    0.00E+00 GTHRE=    1.00E+00

 GRIMME'S EMPIRICAL DISPERSION CORRECTION= F

     $CONTRL OPTIONS
     ---------------
 SCFTYP=RHF          RUNTYP=OPTIMIZE     EXETYP=RUN     
 MPLEVL=       0     CITYP =NONE         CCTYP =NONE         VBTYP =NONE    
 DFTTYP=B3LYP        TDDFT =NONE    
 MULT  =       1     ICHARG=       0     NZVAR =       0     COORD =UNIQUE  
 PP    =NONE         RELWFN=NONE         LOCAL =NONE         NUMGRD=       F
 ISPHER=      -1     NOSYM =       0     MAXIT =     200     UNITS =ANGS    
 PLTORB=       F     MOLPLT=       F     AIMPAC=       F     FRIEND=        
 NPRINT=       7     IREST =       0     GEOM  =INPUT   
 NORMF =       0     NORMP =       0     ITOL  =      20     ICUT  =       9
 INTTYP=BEST         GRDTYP=BEST         QMTTOL= 1.0E-06

     $SYSTEM OPTIONS
     ---------------
  REPLICATED MEMORY=   250000000 WORDS (ON EVERY NODE).
 DISTRIBUTED MEMDDI=           0 MILLION WORDS IN AGGREGATE,
 MEMDDI DISTRIBUTED OVER   1 PROCESSORS IS           0 WORDS/PROCESSOR.
 TOTAL MEMORY REQUESTED ON EACH PROCESSOR=   250000000 WORDS.
 TIMLIM=        2879.00 MINUTES, OR       2.0 DAYS.
 PARALL= F  BALTYP=  DLB     KDIAG=    0  COREFL= F
 MXSEQ2=     300 MXSEQ3=     150  mem10=         0

          ----------------
          PROPERTIES INPUT
          ----------------

     MOMENTS            FIELD           POTENTIAL          DENSITY
 IEMOM =       1   IEFLD =       0   IEPOT =       0   IEDEN =       0
 WHERE =COMASS     WHERE =NUCLEI     WHERE =NUCLEI     WHERE =NUCLEI  
 OUTPUT=BOTH       OUTPUT=BOTH       OUTPUT=BOTH       OUTPUT=BOTH    
 IEMINT=       0   IEFINT=       0                     IEDINT=       0
                                                       MORB  =       0
          EXTRAPOLATION IN EFFECT
          DIIS IN EFFECT
 ORBITAL PRINTING OPTION: NPREO=     1    36     2     1

     -------------------------------
     INTEGRAL TRANSFORMATION OPTIONS
     -------------------------------
     NWORD  =            0
     CUTOFF = 1.0E-09     MPTRAN =       0
     DIRTRF =       T     AOINTS =DUP     

          ----------------------
          INTEGRAL INPUT OPTIONS
          ----------------------
 NOPK  =       1 NORDER=       0 SCHWRZ=       T

     ------------------------------------------
     THE POINT GROUP IS CS , NAXIS= 0, ORDER= 2
     ------------------------------------------

     DIMENSIONS OF THE SYMMETRY SUBSPACES ARE
 A'  =   28     A'' =    8

 ..... DONE SETTING UP THE RUN .....
 STEP CPU TIME =     0.01 TOTAL CPU TIME =          0.0 (      0.0 MIN)
 TOTAL WALL CLOCK TIME=          0.0 SECONDS, CPU UTILIZATION IS    50.00%


          -----------------------------
          STATIONARY POINT LOCATION RUN
          -----------------------------

 OBTAINING INITIAL HESSIAN, HESS=GUESS   
 CARTESIAN COORDINATE OPTIMIZATION USING BADGER'S RULE FORCE CONSTANT GUESS

          PARAMETERS CONTROLLING GEOMETRY SEARCH ARE
          METHOD =QA                  UPHESS =BFGS    
          NNEG   =         0          NFRZ   =         0
          NSTEP  =       999          IFOLOW =         1
          HESS   =GUESS               RESTAR =         F
          IHREP  =         0          HSSEND =         T
          NPRT   =         0          NPUN   =         0
          OPTTOL = 5.000E-04          RMIN   = 1.500E-03
          RMAX   = 1.000E-01          RLIM   = 7.000E-02
          DXMAX  = 3.000E-01          PURIFY =         F
          MOVIE  =         F          TRUPD  =         T
          TRMAX  = 5.000E-01          TRMIN  = 5.000E-02
          ITBMAT =         5          STPT   =         F
          STSTEP = 1.000E-02          PROJCT=          T

 BEGINNING GEOMETRY SEARCH POINT NSERCH=   0 ...

 COORDINATES OF SYMMETRY UNIQUE ATOMS (ANGS)
   ATOM   CHARGE       X              Y              Z
 ------------------------------------------------------------
 C           6.0  -0.5900000000   0.2500000000   0.0000000000
 N           7.0   0.5700000000  -0.3100000000   0.0000000000
 H           1.0  -1.5100000000  -0.3700000000   0.0000000000
 H           1.0  -0.7200000000   1.3400000000   0.0000000000
 H           1.0   1.3100000000   0.4000000000   0.0000000000
 COORDINATES OF ALL ATOMS ARE (ANGS)
   ATOM   CHARGE       X              Y              Z
 ------------------------------------------------------------
 C           6.0  -0.5900000000   0.2500000000   0.0000000000
 N           7.0   0.5700000000  -0.3100000000   0.0000000000
 H           1.0  -1.5100000000  -0.3700000000   0.0000000000
 H           1.0  -0.7200000000   1.3400000000   0.0000000000
 H           1.0   1.3100000000   0.4000000000   0.0000000000

          ********************
          1 ELECTRON INTEGRALS
          ********************
 ...... END OF ONE-ELECTRON INTEGRALS ......
 STEP CPU TIME =     0.00 TOTAL CPU TIME =          0.0 (      0.0 MIN)
 TOTAL WALL CLOCK TIME=          0.0 SECONDS, CPU UTILIZATION IS    33.33%

          -------------
          GUESS OPTIONS
          -------------
          GUESS =HUCKEL            NORB  =       0          NORDER=       0
          MIX   =       F          PRTMO =       F          PUNMO =       F
          TOLZ  = 1.0E-08          TOLE  = 1.0E-05
          SYMDEN=       F          PURIFY=       F

 INITIAL GUESS ORBITALS GENERATED BY HUCKEL   ROUTINE.
 HUCKEL GUESS REQUIRES     13872 WORDS.

 SYMMETRIES FOR INITIAL GUESS ORBITALS FOLLOW.   BOTH SET(S).
     8 ORBITALS ARE OCCUPIED (    2 CORE ORBITALS).
     3=A'       4=A'       5=A'       6=A'       7=A''      8=A'       9=A'' 
    10=A'      11=A'      12=A'      13=A'      14=A'      15=A'      16=A'  
    17=A'      18=A'  
 ...... END OF INITIAL ORBITAL SELECTION ......
 STEP CPU TIME =     0.01 TOTAL CPU TIME =          0.0 (      0.0 MIN)
 TOTAL WALL CLOCK TIME=          0.1 SECONDS, CPU UTILIZATION IS    40.00%

                    ----------------------
                    AO INTEGRAL TECHNOLOGY
                    ----------------------
     S,P,L SHELL ROTATED AXIS INTEGRALS, REPROGRAMMED BY
        KAZUYA ISHIMURA (IMS) AND JOSE SIERRA (SYNSTAR).
     S,P,D,L SHELL ROTATED AXIS INTEGRALS PROGRAMMED BY
        KAZUYA ISHIMURA (INSTITUTE FOR MOLECULAR SCIENCE).
     S,P,D,F,G SHELL TO TOTAL QUARTET ANGULAR MOMENTUM SUM 5,
        ERIC PROGRAM BY GRAHAM FLETCHER (ELORET AND NASA ADVANCED
        SUPERCOMPUTING DIVISION, AMES RESEARCH CENTER).
     S,P,D,F,G,L SHELL GENERAL RYS QUADRATURE PROGRAMMED BY
        MICHEL DUPUIS (PACIFIC NORTHWEST NATIONAL LABORATORY).

          --------------------
          2 ELECTRON INTEGRALS
          --------------------

 DIRECT SCF METHOD SKIPS INTEGRAL STORAGE ON DISK.
 DIRECT TRANSFORMATION SKIPS AO INTEGRAL STORAGE ON DISK.
  ...... END OF TWO-ELECTRON INTEGRALS .....
 STEP CPU TIME =     0.01 TOTAL CPU TIME =          0.0 (      0.0 MIN)
 TOTAL WALL CLOCK TIME=          0.1 SECONDS, CPU UTILIZATION IS    50.00%

          --------------------------
             R-B3LYP SCF CALCULATION
          --------------------------

     NUCLEAR ENERGY =        32.5339984469
     MAXIT =  200     NPUNCH=    2
     EXTRAP=T  DAMP=F  SHIFT=F  RSTRCT=F  DIIS=T  DEM=F  SOSCF=F
         DENSITY MATRIX CONVERGENCE THRESHOLD=  2.00E-05
     COARSE -> FINE DFT GRID SWITCH THRESHOLD=  3.00E-04 (SWITCH IN $DFT)
                   HF -> DFT SWITCH THRESHOLD=  5.00E-03 (SWOFF IN $DFT)
     MEMORY REQUIRED FOR RHF ITERS=    416625 WORDS.

 DIRECT SCF CALCULATION, SCHWRZ=T   FDIFF=T,  DIRTHR=  0.00E+00 NITDIR=10
 SCHWARZ INEQUALITY OVERHEAD:       666 INTEGRALS, T=        0.00

 DFT CODE IS SWITCHING FROM THE FINE GRID NRAD= 96,  NLEB=  590
                      TO THE COARSE GRID NRAD0= 24, NLEB0=  110

     EXCHANGE FUNCTIONAL   =B88&HFX   
     CORRELATION FUNCTIONAL=LYP88&VWN5
     DFT THRESHOLD         =.141E-07
     GRID CHANGE THRESHOLD =.300E-03
 FOR AN EULER-MACLAURIN QUADRATURE USING  96 RADIAL POINTS:
 SMALLEST GAUSSIAN PRIMITIVE EXPONENT=        0.1612777588 OF TYPE -S-
 ON ATOM NUMBER   3 HAS RADIAL NORMALIZATION=  1.000000
  LARGEST GAUSSIAN PRIMITIVE EXPONENT=     4173.5114600000 OF TYPE -S-
 ON ATOM NUMBER   2 HAS RADIAL NORMALIZATION=  1.000000
 DFT IS SWITCHED OFF, PERFORMING PURE SCF UNTIL SWOFF THRESHOLD IS REACHED.

                                                                                   NONZERO     BLOCKS
 ITER EX DEM     TOTAL ENERGY        E CHANGE  DENSITY CHANGE    DIIS ERROR      INTEGRALS    SKIPPED
   1  0  0      -93.7222275553   -93.7222275553   0.224578518   0.573063089         117645          2
          * * *   INITIATING DIIS PROCEDURE   * * *
   2  1  0      -93.9992768185    -0.2770492632   0.111066791   0.099215103         117642          5
   3  2  0      -94.0175872975    -0.0183104790   0.041358147   0.066411699         117636         11
   4  3  0      -94.0245402653    -0.0069529678   0.019956824   0.010503997         117632         15
   5  4  0      -94.0250435891    -0.0005033238   0.006380232   0.002838321         117630         17
   6  5  0      -94.0250784089    -0.0000348198   0.002180844   0.000842518         117594         32
 CONVERGED TO SWOFF, SO DFT CALCULATION IS NOW SWITCHED ON.
          * * *   INITIATING DIIS PROCEDURE   * * *
   7  6  0      -94.5588264792    -0.5337480703   0.079138305   0.093768227         117645          2
   8  7  0      -94.5672256344    -0.0083991552   0.033095459   0.023687378         117638          9
   9  8  0      -94.5673985153    -0.0001728809   0.021760943   0.023650429         117633         14
  10  9  0      -94.5685405737    -0.0011420584   0.007023510   0.010585315         117627         17
  11 10  0      -94.5686558295    -0.0001152558   0.000683881   0.001284675         117598         30
  12 11  0      -94.5686581596    -0.0000023301   0.000042360   0.000062020         117545         45
 DFT CODE IS SWITCHING BACK TO THE FINE GRID
          * * *   INITIATING DIIS PROCEDURE   * * *
  13 12  0      -94.5675947947     0.0010633649   0.002366147   0.001092467         117645          2
  14 13  0      -94.5675971978    -0.0000024031   0.000511708   0.000281430         117575         46
  15 14  0      -94.5675970279     0.0000001699   0.000316948   0.000528993         117440         91
  16 15  0      -94.5675973197    -0.0000002918   0.000038446   0.000057986         117304        118
  17 16  0      -94.5675973232    -0.0000000035   0.000006913   0.000010431         117003        224
  18 17  0      -94.5675973234    -0.0000000002   0.000002386   0.000002496         116270        343

          -----------------
          DENSITY CONVERGED
          -----------------
     TIME TO FORM FOCK OPERATORS=       2.4 SECONDS (       0.1 SEC/ITER)
     FOCK TIME ON FIRST ITERATION=       0.0, LAST ITERATION=       0.4
     TIME TO SOLVE SCF EQUATIONS=       0.0 SECONDS (       0.0 SEC/ITER)

 FINAL R-B3LYP ENERGY IS      -94.5675973234 AFTER  18 ITERATIONS
 DFT EXCHANGE + CORRELATION ENERGY =       -10.7654718657
 TOTAL ELECTRON NUMBER             =        15.9999981566

          ------------
          EIGENVECTORS
          ------------

                      1          2          3          4          5
                  -14.3302   -10.2352    -0.8932    -0.6172    -0.4943
                     A'         A'         A'         A'         A'  
    1  C  1  S    0.000057   0.992700  -0.127743  -0.154027  -0.012176
    2  C  1  S    0.000426   0.048611   0.250628   0.316582   0.016891
    3  C  1  X   -0.000014   0.000227   0.144219  -0.160836  -0.129125
    4  C  1  Y   -0.000051  -0.000091  -0.055680   0.031177   0.376614
    5  C  1  Z    0.000000   0.000000   0.000000   0.000000   0.000000
    6  C  1  S   -0.000671  -0.009740   0.127859   0.314603   0.028011
    7  C  1  X   -0.000348   0.000556  -0.002469  -0.055496  -0.031148
    8  C  1  Y    0.000646  -0.000151   0.008662   0.021908   0.134240
    9  C  1  Z    0.000000   0.000000   0.000000   0.000000   0.000000
   10  C  1 XX   -0.000458  -0.009142   0.013922  -0.009575  -0.005281
   11  C  1 YY   -0.000055  -0.009459  -0.004956   0.012438   0.013671
   12  C  1 ZZ   -0.000001  -0.009853  -0.016855  -0.013404   0.000348
   13  C  1 XY    0.000193  -0.000238  -0.010166   0.008422   0.009810
   14  C  1 XZ    0.000000   0.000000   0.000000   0.000000   0.000000
   15  C  1 YZ    0.000000   0.000000   0.000000   0.000000   0.000000
   16  N  2  S    0.992765  -0.000279  -0.179695   0.086006   0.029007
   17  N  2  S    0.034503  -0.000198   0.376275  -0.186819  -0.068647
   18  N  2  X   -0.000432   0.000267  -0.082711  -0.195164   0.318783
   19  N  2  Y    0.001499  -0.000099   0.125883  -0.064344   0.145036
   20  N  2  Z    0.000000   0.000000   0.000000   0.000000   0.000000
   21  N  2  S    0.003881   0.001267   0.349153  -0.233765  -0.057053
   22  N  2  X   -0.000381  -0.000143  -0.016924  -0.077235   0.107222
   23  N  2  Y   -0.000489  -0.000155   0.050889  -0.033707   0.074495
   24  N  2  Z    0.000000   0.000000   0.000000   0.000000   0.000000
   25  N  2 XX   -0.007823  -0.000370   0.004772   0.006778  -0.007558
   26  N  2 YY   -0.008068  -0.000219   0.000786  -0.004141   0.020324
   27  N  2 ZZ   -0.008182  -0.000019  -0.014172   0.005362  -0.002589
   28  N  2 XY   -0.000146   0.000067   0.000108  -0.020654   0.014874
   29  N  2 XZ    0.000000   0.000000   0.000000   0.000000   0.000000
   30  N  2 YZ    0.000000   0.000000   0.000000   0.000000   0.000000
   31  H  3  S    0.000054  -0.000351   0.042726   0.170018  -0.034960
   32  H  3  S    0.000051   0.002201   0.003186   0.068578  -0.013450
   33  H  4  S   -0.000070  -0.000387   0.047589   0.148868   0.220518
   34  H  4  S   -0.000257   0.002145  -0.000147   0.055706   0.155139
   35  H  5  S    0.000264   0.000096   0.115776  -0.161511   0.171478
   36  H  5  S   -0.000170   0.000216  -0.000010  -0.057070   0.121846

                      6          7          8          9         10
                   -0.4246    -0.3219    -0.2640    -0.0104     0.0949
                     A'         A''        A'         A''        A'  
    1  C  1  S   -0.014080   0.000000  -0.022912   0.000000   0.057411
    2  C  1  S    0.037017   0.000000   0.060815   0.000000  -0.100636
    3  C  1  X    0.382807   0.000000   0.047050   0.000000   0.081779
    4  C  1  Y    0.185304   0.000000  -0.174740   0.000000  -0.210113
    5  C  1  Z    0.000000   0.384496   0.000000   0.457006   0.000000
    6  C  1  S    0.022066   0.000000   0.012826   0.000000  -0.707311
    7  C  1  X    0.154866   0.000000   0.019585   0.000000   0.422613
    8  C  1  Y    0.087457   0.000000   0.003817   0.000000  -0.501818
    9  C  1  Z    0.000000   0.255465   0.000000   0.596255   0.000000
   10  C  1 XX   -0.012950   0.000000   0.018316   0.000000  -0.011870
   11  C  1 YY    0.002595   0.000000  -0.026986   0.000000   0.017612
   12  C  1 ZZ   -0.003329   0.000000  -0.002303   0.000000   0.003146
   13  C  1 XY   -0.020152   0.000000   0.024832   0.000000   0.002220
   14  C  1 XZ    0.000000   0.020587   0.000000  -0.026181   0.000000
   15  C  1 YZ    0.000000  -0.008267   0.000000   0.013701   0.000000
   16  N  2  S    0.029867   0.000000   0.082984   0.000000   0.073178
   17  N  2  S   -0.057616   0.000000  -0.168682   0.000000  -0.093694
   18  N  2  X   -0.300340   0.000000  -0.051337   0.000000  -0.199104
   19  N  2  Y    0.126029   0.000000   0.505093   0.000000  -0.152555
   20  N  2  Z    0.000000   0.452057   0.000000  -0.446444   0.000000
   21  N  2  S   -0.149060   0.000000  -0.390808   0.000000  -1.182306
   22  N  2  X   -0.131725   0.000000  -0.071292   0.000000  -0.300450
   23  N  2  Y    0.053741   0.000000   0.345279   0.000000  -0.386450
   24  N  2  Z    0.000000   0.301213   0.000000  -0.538710   0.000000
   25  N  2 XX   -0.006167   0.000000   0.006322   0.000000   0.024525
   26  N  2 YY    0.011728   0.000000   0.035949   0.000000   0.011274
   27  N  2 ZZ   -0.000097   0.000000  -0.006367   0.000000   0.023376
   28  N  2 XY   -0.029250   0.000000  -0.002603   0.000000   0.002232
   29  N  2 XZ    0.000000  -0.016202   0.000000  -0.015969   0.000000
   30  N  2 YZ    0.000000   0.027215   0.000000  -0.013281   0.000000
   31  H  3  S   -0.245919   0.000000   0.123367   0.000000   0.003995
   32  H  3  S   -0.195369   0.000000   0.176816   0.000000   0.278535
   33  H  4  S    0.101211   0.000000  -0.160596   0.000000   0.057010
   34  H  4  S    0.077133   0.000000  -0.246008   0.000000   1.083572
   35  H  5  S   -0.126495   0.000000   0.149487   0.000000   0.103751
   36  H  5  S   -0.102977   0.000000   0.159970   0.000000   1.301237

                     11         12         13         14         15
                    0.1297     0.1938     0.3029     0.5433     0.5887
                     A'         A'         A'         A''        A'  
    1  C  1  S   -0.121719   0.028016   0.060236   0.000000  -0.041161
    2  C  1  S    0.192011  -0.000556   0.011957   0.000000   0.223067
    3  C  1  X   -0.215258  -0.189476  -0.036760   0.000000   0.810656
    4  C  1  Y   -0.049978  -0.389606   0.121138   0.000000  -0.373842
    5  C  1  Z    0.000000   0.000000   0.000000  -1.028210   0.000000
    6  C  1  S    1.842467  -0.777258  -2.025309   0.000000   0.869724
    7  C  1  X   -0.440243  -1.060526  -2.035509   0.000000  -0.741362
    8  C  1  Y   -0.162710  -1.019264   1.411488   0.000000   0.236883
    9  C  1  Z    0.000000   0.000000   0.000000   1.135211   0.000000
   10  C  1 XX   -0.017253   0.007300   0.009743   0.000000  -0.006314
   11  C  1 YY   -0.002169  -0.003784  -0.007181   0.000000  -0.056467
   12  C  1 ZZ   -0.001283   0.000362  -0.004840   0.000000   0.050961
   13  C  1 XY   -0.002489  -0.008415  -0.034597   0.000000   0.017029
   14  C  1 XZ    0.000000   0.000000   0.000000  -0.030226   0.000000
   15  C  1 YZ    0.000000   0.000000   0.000000   0.014480   0.000000
   16  N  2  S    0.057046  -0.047554  -0.073289   0.000000   0.052044
   17  N  2  S   -0.085720   0.059320   0.070336   0.000000  -0.155326
   18  N  2  X   -0.037495   0.024691  -0.354708   0.000000   0.032663
   19  N  2  Y   -0.121976   0.175549  -0.049248   0.000000   0.049679
   20  N  2  Z    0.000000   0.000000   0.000000  -0.162926   0.000000
   21  N  2  S   -0.789396   1.037762   2.150078   0.000000  -0.061558
   22  N  2  X   -0.007792  -0.008128  -1.545898   0.000000   0.909819
   23  N  2  Y   -0.253019   0.676385   0.287234   0.000000  -0.275348
   24  N  2  Z    0.000000   0.000000   0.000000  -0.034383   0.000000
   25  N  2 XX    0.023539   0.008234   0.005199   0.000000   0.073290
   26  N  2 YY   -0.002319  -0.010721  -0.022124   0.000000  -0.049097
   27  N  2 ZZ    0.019493  -0.024372  -0.032570   0.000000  -0.032064
   28  N  2 XY    0.000697   0.014823  -0.023477   0.000000  -0.095673
   29  N  2 XZ    0.000000   0.000000   0.000000   0.061815   0.000000
   30  N  2 YZ    0.000000   0.000000   0.000000  -0.027288   0.000000
   31  H  3  S   -0.107633  -0.018953  -0.063584   0.000000  -0.106861
   32  H  3  S   -1.571626  -1.388956   0.065641   0.000000  -0.308901
   33  H  4  S   -0.054641   0.037964  -0.029437   0.000000  -0.260599
   34  H  4  S   -0.788931   1.588140  -0.785463   0.000000  -0.039984
   35  H  5  S    0.070223   0.036595   0.040477   0.000000  -0.271935
   36  H  5  S    0.802725  -0.648030   0.907126   0.000000   0.067620

                     16         17         18         19         20
                    0.6397     0.6651     0.7304     0.7624     0.8245
                     A'         A'         A'         A''        A'  
    1  C  1  S   -0.012516  -0.062311   0.053616   0.000000   0.003852
    2  C  1  S   -0.268857  -0.833812  -0.308830   0.000000  -0.035454
    3  C  1  X   -0.369079  -0.029225  -0.319089   0.000000  -0.382921
    4  C  1  Y   -0.459369   0.156494   0.221024   0.000000  -0.886983
    5  C  1  Z    0.000000   0.000000   0.000000   0.215770   0.000000
    6  C  1  S    0.151322   1.345753   0.737075   0.000000   0.455251
    7  C  1  X    0.611741  -0.521420   0.398523   0.000000   1.101812
    8  C  1  Y    1.543623  -0.153785  -0.250086   0.000000   2.012685
    9  C  1  Z    0.000000   0.000000   0.000000  -0.613452   0.000000
   10  C  1 XX    0.017404  -0.135953   0.190885   0.000000  -0.046503
   11  C  1 YY   -0.111765  -0.167753  -0.091500   0.000000   0.067798
   12  C  1 ZZ    0.018406   0.070684  -0.057563   0.000000  -0.013732
   13  C  1 XY    0.068298  -0.050793  -0.042484   0.000000  -0.101552
   14  C  1 XZ    0.000000   0.000000   0.000000  -0.036972   0.000000
   15  C  1 YZ    0.000000   0.000000   0.000000   0.018518   0.000000
   16  N  2  S   -0.034118  -0.001969  -0.030165   0.000000   0.016239
   17  N  2  S    0.095136  -0.300169  -0.058610   0.000000  -0.132650
   18  N  2  X    0.095398   0.187698  -0.373614   0.000000  -0.133623
   19  N  2  Y   -0.327156   0.081137   0.730762   0.000000   0.283094
   20  N  2  Z    0.000000   0.000000   0.000000  -0.974903   0.000000
   21  N  2  S    0.197636   0.466527  -0.162810   0.000000  -0.021190
   22  N  2  X   -0.336341  -0.380302   0.568148   0.000000   0.149053
   23  N  2  Y    0.164445   0.089273  -0.694153   0.000000  -0.794350
   24  N  2  Z    0.000000   0.000000   0.000000   1.273125   0.000000
   25  N  2 XX   -0.027513  -0.083727  -0.218311   0.000000   0.024765
   26  N  2 YY    0.014117  -0.047208  -0.030979   0.000000  -0.064866
   27  N  2 ZZ    0.058104  -0.017993   0.028221   0.000000  -0.050024
   28  N  2 XY   -0.045407   0.024801  -0.011361   0.000000   0.081658
   29  N  2 XZ    0.000000   0.000000   0.000000   0.024362   0.000000
   30  N  2 YZ    0.000000   0.000000   0.000000  -0.009507   0.000000
   31  H  3  S    0.279956  -0.698257   0.215752   0.000000  -0.481572
   32  H  3  S    0.474608  -0.174806  -0.336579   0.000000   1.645371
   33  H  4  S   -0.527157  -0.497533  -0.152329   0.000000   0.443452
   34  H  4  S   -0.501192   0.046850   0.230622   0.000000  -1.676928
   35  H  5  S   -0.368164   0.105223  -0.466436   0.000000   0.269681
   36  H  5  S    0.065220  -0.116024   0.256204   0.000000  -0.348098

                     21         22         23         24         25
                    0.9047     0.9282     1.0045     1.2482     1.4727
                     A'         A'         A'         A'         A'' 
    1  C  1  S    0.021920   0.004272  -0.013113   0.008753   0.000000
    2  C  1  S   -1.356619  -0.615565   0.193256   0.512516   0.000000
    3  C  1  X    0.335825   0.276108   0.207327  -0.069349   0.000000
    4  C  1  Y   -0.080398  -0.245184  -0.089142  -0.021633   0.000000
    5  C  1  Z    0.000000   0.000000   0.000000   0.000000   0.189429
    6  C  1  S    3.206590   0.703202  -1.084053  -3.807859   0.000000
    7  C  1  X   -0.298244  -0.876826  -0.337711  -1.716674   0.000000
    8  C  1  Y   -0.200185   0.684488   1.598102   0.233349   0.000000
    9  C  1  Z    0.000000   0.000000   0.000000   0.000000  -0.081020
   10  C  1 XX   -0.060510  -0.103709   0.060328  -0.071350   0.000000
   11  C  1 YY   -0.003607   0.039124  -0.025067   0.108082   0.000000
   12  C  1 ZZ   -0.106140  -0.059753  -0.029648   0.023771   0.000000
   13  C  1 XY    0.005635   0.090711   0.185259   0.093058   0.000000
   14  C  1 XZ    0.000000   0.000000   0.000000   0.000000  -0.534115
   15  C  1 YZ    0.000000   0.000000   0.000000   0.000000   0.353621
   16  N  2  S    0.001019  -0.012152   0.019896  -0.086334   0.000000
   17  N  2  S   -0.276696   0.319471  -0.499575  -1.594383   0.000000
   18  N  2  X   -0.442796   0.697137   0.286175   0.154271   0.000000
   19  N  2  Y   -0.271707   0.330436   0.233427  -0.193650   0.000000
   20  N  2  Z    0.000000   0.000000   0.000000   0.000000   0.152455
   21  N  2  S    0.105579  -0.382279   1.372102   5.324597   0.000000
   22  N  2  X    0.973269  -1.388593  -1.462708  -1.224326   0.000000
   23  N  2  Y    0.373517  -0.403792  -0.966292   1.491865   0.000000
   24  N  2  Z    0.000000   0.000000   0.000000   0.000000   0.033353
   25  N  2 XX   -0.078248   0.059601  -0.074839  -0.347530   0.000000
   26  N  2 YY   -0.046262   0.030687   0.113969  -0.356301   0.000000
   27  N  2 ZZ   -0.019636   0.095462  -0.230622  -0.042057   0.000000
   28  N  2 XY    0.064027  -0.069095   0.029642  -0.067062   0.000000
   29  N  2 XZ    0.000000   0.000000   0.000000   0.000000   0.571382
   30  N  2 YZ    0.000000   0.000000   0.000000   0.000000  -0.147625
   31  H  3  S    0.480696   0.170697   0.538647  -0.019398   0.000000
   32  H  3  S   -1.304642  -0.613288  -0.005104   0.028900   0.000000
   33  H  4  S    0.354767   0.547532  -0.358180   0.306384   0.000000
   34  H  4  S   -0.907462  -1.203218  -0.422372   0.306449   0.000000
   35  H  5  S    0.279613  -0.490252   0.733944  -0.431972   0.000000
   36  H  5  S   -0.930848   1.470790   0.110175  -0.432740   0.000000

                     26         27         28         29         30
                    1.5290     1.7919     1.8554     1.9302     2.1877
                     A''        A'         A''        A'         A'  
    1  C  1  S    0.000000   0.013499   0.000000   0.038058   0.051391
    2  C  1  S    0.000000   0.129333   0.000000   0.252315   0.212846
    3  C  1  X    0.000000   0.097449   0.000000   0.082957   0.093876
    4  C  1  Y    0.000000   0.151896   0.000000  -0.154629  -0.031511
    5  C  1  Z   -0.025674   0.000000  -0.001134   0.000000   0.000000
    6  C  1  S    0.000000  -0.443993   0.000000  -0.500641  -0.217417
    7  C  1  X    0.000000   0.404236   0.000000   0.218715  -0.424707
    8  C  1  Y    0.000000   0.962102   0.000000  -0.099627   0.108367
    9  C  1  Z    0.016666   0.000000   0.010405   0.000000   0.000000
   10  C  1 XX    0.000000  -0.324793   0.000000  -0.006530  -0.617609
   11  C  1 YY    0.000000   0.077010   0.000000  -0.696584   0.480026
   12  C  1 ZZ    0.000000   0.259971   0.000000   0.783981   0.404040
   13  C  1 XY    0.000000  -0.331487   0.000000  -0.056311   0.618665
   14  C  1 XZ    0.410362   0.000000  -0.263450   0.000000   0.000000
   15  C  1 YZ    0.624844   0.000000  -0.619465   0.000000   0.000000
   16  N  2  S    0.000000   0.006531   0.000000   0.028371   0.007910
   17  N  2  S    0.000000   0.020017   0.000000   0.233742   0.474390
   18  N  2  X    0.000000   0.086736   0.000000  -0.060326  -0.433917
   19  N  2  Y    0.000000   0.204242   0.000000  -0.014434   0.232774
   20  N  2  Z   -0.032015   0.000000  -0.016481   0.000000   0.000000
   21  N  2  S    0.000000  -0.015970   0.000000  -0.721500  -0.226895
   22  N  2  X    0.000000  -0.446690   0.000000  -0.157169   0.421238
   23  N  2  Y    0.000000  -0.552955   0.000000  -0.363798  -0.075375
   24  N  2  Z   -0.019447   0.000000  -0.018358   0.000000   0.000000
   25  N  2 XX    0.000000   0.373487   0.000000  -0.353798  -0.208649
   26  N  2 YY    0.000000  -0.726238   0.000000   0.045865   0.272252
   27  N  2 ZZ    0.000000   0.376896   0.000000   0.438584   0.224625
   28  N  2 XY    0.000000   0.269127   0.000000  -0.297160   0.347021
   29  N  2 XZ    0.183200   0.000000   0.341333   0.000000   0.000000
   30  N  2 YZ    0.565989   0.000000   0.728641   0.000000   0.000000
   31  H  3  S    0.000000   0.658210   0.000000   0.196568  -0.157992
   32  H  3  S    0.000000   0.291374   0.000000   0.148090   0.003622
   33  H  4  S    0.000000  -0.372667   0.000000   0.581975  -0.207386
   34  H  4  S    0.000000  -0.223835   0.000000   0.008977   0.076360
   35  H  5  S    0.000000   0.125978   0.000000   0.529209  -0.233703
   36  H  5  S    0.000000   0.174584   0.000000   0.172393   0.111956

                     31         32         33         34         35
                    2.3376     2.4380     2.5819     2.7369     3.7028
                     A'         A''        A'         A'         A'  
    1  C  1  S    0.034800   0.000000   0.021832   0.020598  -0.051970
    2  C  1  S    0.022953   0.000000  -0.056600  -0.653900   0.551446
    3  C  1  X   -0.073419   0.000000  -0.076200  -0.886857   0.215916
    4  C  1  Y    0.081756   0.000000   0.086426   0.412688  -0.120930
    5  C  1  Z    0.000000   0.166108   0.000000   0.000000   0.000000
    6  C  1  S   -1.302144   0.000000  -0.713726  -1.821955  -1.303231
    7  C  1  X   -0.443828   0.000000  -0.287561  -0.929670  -0.665744
    8  C  1  Y   -0.221715   0.000000   0.102887   0.603329   0.241904
    9  C  1  Z    0.000000   0.284922   0.000000   0.000000   0.000000
   10  C  1 XX   -0.396760   0.000000   0.567731  -0.743607  -0.078046
   11  C  1 YY   -0.093826   0.000000  -0.728855   0.203122  -0.192125
   12  C  1 ZZ    0.588324   0.000000   0.243464   0.421349  -0.196686
   13  C  1 XY   -0.494604   0.000000   0.667182   0.600049  -0.134800
   14  C  1 XZ    0.000000   0.832400   0.000000   0.000000   0.000000
   15  C  1 YZ    0.000000  -0.397318   0.000000   0.000000   0.000000
   16  N  2  S   -0.042350   0.000000  -0.026493  -0.071209  -0.475133
   17  N  2  S   -0.486056   0.000000  -0.136928  -0.172465   1.050642
   18  N  2  X    0.046503   0.000000  -0.070194  -0.428309   0.127116
   19  N  2  Y    0.007003   0.000000  -0.038682   0.247622  -0.154603
   20  N  2  Z    0.000000  -0.045687   0.000000   0.000000   0.000000
   21  N  2  S    1.729628   0.000000   0.846243   2.412061   3.716326
   22  N  2  X   -0.078457   0.000000  -0.308233  -1.515333  -0.409958
   23  N  2  Y    0.834991   0.000000   0.140131   0.459585   0.579894
   24  N  2  Z    0.000000  -0.371942   0.000000   0.000000   0.000000
   25  N  2 XX    0.126563   0.000000   0.677361   0.855648  -1.561992
   26  N  2 YY    0.579553   0.000000  -0.411247  -0.302978  -1.492989
   27  N  2 ZZ   -0.786758   0.000000  -0.306133  -0.547250  -1.544442
   28  N  2 XY    0.276108   0.000000   0.593489  -1.011309   0.038626
   29  N  2 XZ    0.000000   0.856047   0.000000   0.000000   0.000000
   30  N  2 YZ    0.000000  -0.426494   0.000000   0.000000   0.000000
   31  H  3  S    0.467370   0.000000  -0.297607   0.041386   0.090177
   32  H  3  S   -0.185921   0.000000   0.161593   0.005164  -0.069945
   33  H  4  S    0.169001   0.000000   0.495695  -0.018253   0.071376
   34  H  4  S    0.273748   0.000000  -0.167272  -0.103896   0.027471
   35  H  5  S   -0.801785   0.000000  -0.444808   0.226731   0.090911
   36  H  5  S   -0.102028   0.000000   0.157674   0.123149  -0.591650

                     36
                    4.0958
                     A'  
    1  C  1  S   -0.461494
    2  C  1  S    2.992579
    3  C  1  X   -0.197063
    4  C  1  Y    0.098728
    5  C  1  Z    0.000000
    6  C  1  S    1.639484
    7  C  1  X   -0.125207
    8  C  1  Y    0.049741
    9  C  1  Z    0.000000
   10  C  1 XX   -2.042583
   11  C  1 YY   -1.856875
   12  C  1 ZZ   -1.741618
   13  C  1 XY    0.159145
   14  C  1 XZ    0.000000
   15  C  1 YZ    0.000000
   16  N  2  S    0.060621
   17  N  2  S   -0.051248
   18  N  2  X   -0.274232
   19  N  2  Y    0.145266
   20  N  2  Z    0.000000
   21  N  2  S   -0.553662
   22  N  2  X   -0.053542
   23  N  2  Y   -0.007734
   24  N  2  Z    0.000000
   25  N  2 XX    0.477380
   26  N  2 YY    0.244247
   27  N  2 ZZ    0.136408
   28  N  2 XY   -0.148897
   29  N  2 XZ    0.000000
   30  N  2 YZ    0.000000
   31  H  3  S    0.154932
   32  H  3  S   -0.452836
   33  H  4  S    0.177470
   34  H  4  S   -0.466214
   35  H  5  S   -0.046288
   36  H  5  S    0.090531
 ...... END OF RHF CALCULATION ......
 STEP CPU TIME =     2.52 TOTAL CPU TIME =          2.5 (      0.0 MIN)
 TOTAL WALL CLOCK TIME=          2.7 SECONDS, CPU UTILIZATION IS    95.86%

     ---------------------------------------------------------------------
     PROPERTIES FOR THE B3LYP    DFT FUNCTIONAL (RHF  TYPE) DENSITY MATRIX
     ---------------------------------------------------------------------

          -----------------
          ENERGY COMPONENTS
          -----------------

         WAVEFUNCTION NORMALIZATION =       1.0000000000

                ONE ELECTRON ENERGY =    -191.3125636945
                TWO ELECTRON ENERGY =      64.2109679242
           NUCLEAR REPULSION ENERGY =      32.5339984469
                                      ------------------
                       TOTAL ENERGY =     -94.5675973234

 ELECTRON-ELECTRON POTENTIAL ENERGY =      64.2109679242
  NUCLEUS-ELECTRON POTENTIAL ENERGY =    -284.9603992933
   NUCLEUS-NUCLEUS POTENTIAL ENERGY =      32.5339984469
                                      ------------------
             TOTAL POTENTIAL ENERGY =    -188.2154329222
               TOTAL KINETIC ENERGY =      93.6478355987
                 VIRIAL RATIO (V/T) =       2.0098214947

          ---------------------------------------
          MULLIKEN AND LOWDIN POPULATION ANALYSES
          ---------------------------------------

     ATOMIC MULLIKEN POPULATION IN EACH MOLECULAR ORBITAL

                      1          2          3          4          5

                  2.000000   2.000000   2.000000   2.000000   2.000000

    1            -0.000259   1.999072   0.591445   0.932120   0.779506
    2             2.000274   0.000115   1.287287   0.471183   0.586208
    3             0.000001   0.000405   0.014605   0.242548   0.007652
    4            -0.000007   0.000396   0.015813   0.179730   0.405161
    5            -0.000009   0.000011   0.090849   0.174419   0.221474

                      6          7          8

                  2.000000   2.000000   2.000000

    1             0.816106   0.888012   0.109486
    2             0.521547   1.111988   1.488724
    3             0.476848   0.000000   0.101802
    4             0.070195   0.000000   0.195347
    5             0.115304   0.000000   0.104641

               ----- POPULATIONS IN EACH AO -----
                             MULLIKEN      LOWDIN
              1  C  1  S      1.99165     1.97795
              2  C  1  S      0.72067     0.37433
              3  C  1  X      0.75348     0.67134
              4  C  1  Y      0.74080     0.64567
              5  C  1  Z      0.50558     0.46387
              6  C  1  S      0.54345     0.34360
              7  C  1  X      0.18588     0.34944
              8  C  1  Y      0.27205     0.42889
              9  C  1  Z      0.37488     0.41711
             10  C  1 XX      0.01231     0.19559
             11  C  1 YY      0.01465     0.17873
             12  C  1 ZZ     -0.02699     0.10494
             13  C  1 XY      0.01951     0.03661
             14  C  1 XZ      0.00637     0.01106
             15  C  1 YZ      0.00118     0.00222
             16  N  2  S      1.99231     1.97781
             17  N  2  S      0.82732     0.55435
             18  N  2  X      0.79154     0.71097
             19  N  2  Y      0.94665     0.89139
             20  N  2  Z      0.63028     0.58408
             21  N  2  S      0.95933     0.44858
             22  N  2  X      0.28441     0.42552
             23  N  2  Y      0.56086     0.65648
             24  N  2  Z      0.47272     0.50895
             25  N  2 XX      0.00425     0.20401
             26  N  2 YY     -0.01305     0.17118
             27  N  2 ZZ     -0.01568     0.16342
             28  N  2 XY      0.01741     0.03022
             29  N  2 XZ      0.00438     0.00779
             30  N  2 YZ      0.00461     0.00492
             31  H  3  S      0.52544     0.48185
             32  H  3  S      0.31842     0.36315
             33  H  4  S      0.53245     0.49324
             34  H  4  S      0.33418     0.37513
             35  H  5  S      0.51621     0.46912
             36  H  5  S      0.19048     0.27645

          ----- MULLIKEN ATOMIC OVERLAP POPULATIONS -----
          (OFF-DIAGONAL ELEMENTS NEED TO BE MULTIPLIED BY 2)

             1           2           3           4           5

    1    4.8644617
    2    0.5856807   6.7017513
    3    0.3650096  -0.0473564   0.5802063
    4    0.3529691  -0.0443616  -0.0630007   0.6419572
    5   -0.0526325   0.2716126   0.0090022  -0.0209284   0.4996343

          TOTAL MULLIKEN AND LOWDIN ATOMIC POPULATIONS
       ATOM         MULL.POP.    CHARGE          LOW.POP.     CHARGE
    1 C             6.115489   -0.115489         6.201367   -0.201367
    2 N             7.467327   -0.467327         7.339685   -0.339685
    3 H             0.843861    0.156139         0.844997    0.155003
    4 H             0.866636    0.133364         0.868376    0.131624
    5 H             0.706688    0.293312         0.745575    0.254425

          -------------------------------
          BOND ORDER AND VALENCE ANALYSIS     BOND ORDER THRESHOLD=0.050
          -------------------------------

                   BOND                       BOND                       BOND
  ATOM PAIR DIST  ORDER      ATOM PAIR DIST  ORDER      ATOM PAIR DIST  ORDER
    1   2  1.288  2.011        1   3  1.109  0.919        1   4  1.098  0.914
    2   5  1.026  0.843

                       TOTAL       BONDED        FREE
      ATOM            VALENCE     VALENCE     VALENCE
    1 C                 3.841       3.841       0.000
    2 N                 2.867       2.867      -0.000
    3 H                 0.930       0.930      -0.000
    4 H                 0.926       0.926       0.000
    5 H                 0.855       0.855      -0.000

          ---------------------
          ELECTROSTATIC MOMENTS
          ---------------------

 POINT   1           X           Y           Z (BOHR)    CHARGE
                -0.001657    0.002589    0.000000        0.00 (A.U.)
         DX          DY          DZ         /D/  (DEBYE)
    -0.639724    1.893983    0.000000    1.999105
 ...... END OF PROPERTY EVALUATION ......
 STEP CPU TIME =     0.01 TOTAL CPU TIME =          2.6 (      0.0 MIN)
 TOTAL WALL CLOCK TIME=          2.7 SECONDS, CPU UTILIZATION IS    95.52%

 BEGINNING ONE ELECTRON GRADIENT...
 ..... END OF 1-ELECTRON GRADIENT ......
 STEP CPU TIME =     0.00 TOTAL CPU TIME =          2.6 (      0.0 MIN)
 TOTAL WALL CLOCK TIME=          2.7 SECONDS, CPU UTILIZATION IS    95.17%

          ----------------------
          GRADIENT OF THE ENERGY
          ----------------------
 MEMORY FOR GRID POINT CONTRIBUTIONS TO THE DFT GRADIENT=    347004 WORDS.
 STEP CPU TIME =     0.53 TOTAL CPU TIME =          3.1 (      0.1 MIN)
 TOTAL WALL CLOCK TIME=          3.2 SECONDS, CPU UTILIZATION IS    95.67%

 THE MINIMUM MEMORY REQUIRED FOR THIS RUN IS      78032 WORDS.
 USING    1053552 WORDS FOR 2E- DERIVATIVE INTEGRAL CONTRIBUTIONS.
 THE COARSE/FINE SCHWARZ SCREENINGS SKIPPED            4/          41 BLOCKS.
 THE NUMBER OF GRADIENT INTEGRAL BLOCKS COMPUTED WAS      5392
 ...... END OF 2-ELECTRON GRADIENT ......
 STEP CPU TIME =     0.03 TOTAL CPU TIME =          3.1 (      0.1 MIN)
 TOTAL WALL CLOCK TIME=          3.3 SECONDS, CPU UTILIZATION IS    95.71%

          NSERCH=  0     ENERGY=     -94.5675973

                                 -----------------------
                                 GRADIENT (HARTREE/BOHR)
                                 -----------------------
        ATOM     ZNUC       DE/DX         DE/DY         DE/DZ
 --------------------------------------------------------------
    1  C            6.0    -0.0189399     0.0080926     0.0000000
    2  N            7.0     0.0234039    -0.0018659     0.0000000
    3  H            1.0    -0.0103417    -0.0049185     0.0000000
    4  H            1.0     0.0052190     0.0003852     0.0000000
    5  H            1.0     0.0006587    -0.0016933     0.0000000

          MAXIMUM GRADIENT = 0.0234039    RMS GRADIENT = 0.0087073

 NSERCH:   0  E=      -94.5675973234  GRAD. MAX=  0.0234039  R.M.S.=  0.0087073

          FORCE CONSTANT MATRIX NOT UPDATED --- TAKING FIRST STEP
          MIN SEARCH, CORRECT HESSIAN, TRYING PURE NR STEP
               NR STEP HAS LENGTH         =   0.181474
          RADIUS OF STEP TAKEN=   0.18147  CURRENT TRUST RADIUS=   0.30000

 BEGINNING GEOMETRY SEARCH POINT NSERCH=   1 ...

 COORDINATES OF SYMMETRY UNIQUE ATOMS (ANGS)
   ATOM   CHARGE       X              Y              Z
 ------------------------------------------------------------
 C           6.0  -0.5594588032   0.2758524091   0.0000000000
 N           7.0   0.5545962553  -0.3329049260   0.0000000000
 H           1.0  -1.4616840982  -0.3586637448   0.0000000000
 H           1.0  -0.7799717806   1.3513709690   0.0000000000
 H           1.0   1.3065184267   0.3743452926   0.0000000000
 COORDINATES OF ALL ATOMS ARE (ANGS)
   ATOM   CHARGE       X              Y              Z
 ------------------------------------------------------------
 C           6.0  -0.5594588032   0.2758524091   0.0000000000
 N           7.0   0.5545962553  -0.3329049260   0.0000000000
 H           1.0  -1.4616840982  -0.3586637448   0.0000000000
 H           1.0  -0.7799717806   1.3513709690   0.0000000000
 H           1.0   1.3065184267   0.3743452926   0.0000000000

          INTERNUCLEAR DISTANCES (ANGS.)
          ------------------------------

                1 C          2 N          3 H          4 H          5 H     

   1 C       0.0000000    1.2695291 *  1.1030055 *  1.0978917 *  1.8685748 *
   2 N       1.2695291 *  0.0000000    2.0164449 *  2.1489200 *  1.0322741 *
   3 H       1.1030055 *  2.0164449 *  0.0000000    1.8409102 *  2.8636074 *
   4 H       1.0978917 *  2.1489200 *  1.8409102 *  0.0000000    2.3039142 *
   5 H       1.8685748 *  1.0322741 *  2.8636074 *  2.3039142 *  0.0000000  

  * ... LESS THAN  3.000

 ...... END OF ONE-ELECTRON INTEGRALS ......
 STEP CPU TIME =     0.01 TOTAL CPU TIME =          3.1 (      0.1 MIN)
 TOTAL WALL CLOCK TIME=          3.3 SECONDS, CPU UTILIZATION IS    95.72%
  ...... END OF TWO-ELECTRON INTEGRALS .....
 STEP CPU TIME =     0.00 TOTAL CPU TIME =          3.1 (      0.1 MIN)
 TOTAL WALL CLOCK TIME=          3.3 SECONDS, CPU UTILIZATION IS    95.43%

          --------------------------
             R-B3LYP SCF CALCULATION
          --------------------------
         DENSITY MATRIX CONVERGENCE THRESHOLD=  1.00E-04
     COARSE -> FINE DFT GRID SWITCH THRESHOLD=  1.50E-03 (SWITCH IN $DFT)
                   HF -> DFT SWITCH THRESHOLD=  5.00E-03 (SWOFF IN $DFT)

 DIRECT SCF CALCULATION, SCHWRZ=T   FDIFF=T,  DIRTHR=  0.00E+00 NITDIR=10

 DFT CODE IS SWITCHING FROM THE FINE GRID NRAD= 96,  NLEB=  590
                      TO THE COARSE GRID NRAD0= 24, NLEB0=  110

                                                                                   NONZERO     BLOCKS
 ITER EX DEM     TOTAL ENERGY        E CHANGE  DENSITY CHANGE    DIIS ERROR      INTEGRALS    SKIPPED
          * * *   INITIATING DIIS PROCEDURE   * * *
   1  0  0      -94.5675165744   -94.5675165744   0.018622144   0.015206846         117645          2
   2  1  0      -94.5687285259    -0.0012119515   0.003795744   0.002754030         117634         13
   3  2  0      -94.5687452635    -0.0000167376   0.002215569   0.002149842         117627         17
   4  3  0      -94.5687645637    -0.0000193002   0.000403417   0.000493293         117603         28
 DFT CODE IS SWITCHING BACK TO THE FINE GRID
          * * *   INITIATING DIIS PROCEDURE   * * *
   5  4  0      -94.5675207419     0.0012438218   0.002060563   0.001264474         117645          2
   6  5  0      -94.5675227963    -0.0000020544   0.001203131   0.000933382         117594         36
   7  6  0      -94.5675223119     0.0000004844   0.000613202   0.001166482         117520         53
   8  7  0      -94.5675236925    -0.0000013806   0.000014699   0.000037401         117475         66
   9  8  0      -94.5675236945    -0.0000000020   0.000006672   0.000009589         117086        196

          -----------------
          DENSITY CONVERGED
          -----------------
     TIME TO FORM FOCK OPERATORS=       2.0 SECONDS (       0.2 SEC/ITER)
     FOCK TIME ON FIRST ITERATION=       0.0, LAST ITERATION=       0.4
     TIME TO SOLVE SCF EQUATIONS=       0.1 SECONDS (       0.0 SEC/ITER)

 FINAL R-B3LYP ENERGY IS      -94.5675236945 AFTER   9 ITERATIONS
 DFT EXCHANGE + CORRELATION ENERGY =       -10.7759295120
 TOTAL ELECTRON NUMBER             =        16.0000005729
 ...... END OF RHF CALCULATION ......
 STEP CPU TIME =     2.04 TOTAL CPU TIME =          5.2 (      0.1 MIN)
 TOTAL WALL CLOCK TIME=          5.4 SECONDS, CPU UTILIZATION IS    96.46%
 ..... END OF 1-ELECTRON GRADIENT ......
 STEP CPU TIME =     0.00 TOTAL CPU TIME =          5.2 (      0.1 MIN)
 TOTAL WALL CLOCK TIME=          5.4 SECONDS, CPU UTILIZATION IS    96.28%
 MEMORY FOR GRID POINT CONTRIBUTIONS TO THE DFT GRADIENT=    347004 WORDS.
 STEP CPU TIME =     0.53 TOTAL CPU TIME =          5.7 (      0.1 MIN)
 TOTAL WALL CLOCK TIME=          5.9 SECONDS, CPU UTILIZATION IS    96.45%
 ...... END OF 2-ELECTRON GRADIENT ......
 STEP CPU TIME =     0.03 TOTAL CPU TIME =          5.7 (      0.1 MIN)
 TOTAL WALL CLOCK TIME=          5.9 SECONDS, CPU UTILIZATION IS    96.46%

          NSERCH=  1     ENERGY=     -94.5675237

                                 -----------------------
                                 GRADIENT (HARTREE/BOHR)
                                 -----------------------
        ATOM     ZNUC       DE/DX         DE/DY         DE/DZ
 --------------------------------------------------------------
    1  C            6.0     0.0186362     0.0154191     0.0000000
    2  N            7.0    -0.0068726    -0.0138589     0.0000000
    3  H            1.0    -0.0022184    -0.0041111     0.0000000
    4  H            1.0    -0.0076892    -0.0019695     0.0000000
    5  H            1.0    -0.0018559     0.0045204     0.0000000

          MAXIMUM GRADIENT = 0.0186362    RMS GRADIENT = 0.0078870

 NSERCH:   1  E=      -94.5675236945  GRAD. MAX=  0.0186362  R.M.S.=  0.0078870

          HESSIAN UPDATED USING THE BFGS FORMULA
             ACTUAL ENERGY CHANGE WAS   0.0000736289
          PREDICTED ENERGY CHANGE WAS  -0.0014266426 RATIO= -0.052
          MIN SEARCH, CORRECT HESSIAN, TRYING PURE NR STEP
               NR STEP HAS LENGTH         =   0.098801
          TRIM/QA LAMBDA FOR NON-TS MODES =  -0.01220007
          TRIM/QA STEP HAS LENGTH         =   0.090737
          RADIUS OF STEP TAKEN=   0.09074  CURRENT TRUST RADIUS=   0.09074

 BEGINNING GEOMETRY SEARCH POINT NSERCH=   2 ...

 COORDINATES OF SYMMETRY UNIQUE ATOMS (ANGS)
   ATOM   CHARGE       X              Y              Z
 ------------------------------------------------------------
 C           6.0  -0.5761617008   0.2563120310   0.0000000000
 N           7.0   0.5543249212  -0.3091020032   0.0000000000
 H           1.0  -1.4785579936  -0.3588840603   0.0000000000
 H           1.0  -0.7555290794   1.3423064411   0.0000000000
 H           1.0   1.3159238525   0.3793675915   0.0000000000
 COORDINATES OF ALL ATOMS ARE (ANGS)
   ATOM   CHARGE       X              Y              Z
 ------------------------------------------------------------
 C           6.0  -0.5761617008   0.2563120310   0.0000000000
 N           7.0   0.5543249212  -0.3091020032   0.0000000000
 H           1.0  -1.4785579936  -0.3588840603   0.0000000000
 H           1.0  -0.7555290794   1.3423064411   0.0000000000
 H           1.0   1.3159238525   0.3793675915   0.0000000000

          INTERNUCLEAR DISTANCES (ANGS.)
          ------------------------------

                1 C          2 N          3 H          4 H          5 H     

   1 C       0.0000000    1.2639988 *  1.0921471 *  1.1007073 *  1.8960829 *
   2 N       1.2639988 *  0.0000000    2.0334924 *  2.1078110 *  1.0266564 *
   3 H       1.0921471 *  2.0334924 *  0.0000000    1.8484642 *  2.8903537 *
   4 H       1.1007073 *  2.1078110 *  1.8484642 *  0.0000000    2.2843311 *
   5 H       1.8960829 *  1.0266564 *  2.8903537 *  2.2843311 *  0.0000000  

  * ... LESS THAN  3.000

 ...... END OF ONE-ELECTRON INTEGRALS ......
 STEP CPU TIME =     0.00 TOTAL CPU TIME =          5.7 (      0.1 MIN)
 TOTAL WALL CLOCK TIME=          6.0 SECONDS, CPU UTILIZATION IS    96.30%
  ...... END OF TWO-ELECTRON INTEGRALS .....
 STEP CPU TIME =     0.02 TOTAL CPU TIME =          5.8 (      0.1 MIN)
 TOTAL WALL CLOCK TIME=          6.0 SECONDS, CPU UTILIZATION IS    96.48%

          --------------------------
             R-B3LYP SCF CALCULATION
          --------------------------
         DENSITY MATRIX CONVERGENCE THRESHOLD=  1.00E-04
     COARSE -> FINE DFT GRID SWITCH THRESHOLD=  1.50E-03 (SWITCH IN $DFT)
                   HF -> DFT SWITCH THRESHOLD=  5.00E-03 (SWOFF IN $DFT)

 DIRECT SCF CALCULATION, SCHWRZ=T   FDIFF=T,  DIRTHR=  0.00E+00 NITDIR=10

 DFT CODE IS SWITCHING FROM THE FINE GRID NRAD= 96,  NLEB=  590
                      TO THE COARSE GRID NRAD0= 24, NLEB0=  110

                                                                                   NONZERO     BLOCKS
 ITER EX DEM     TOTAL ENERGY        E CHANGE  DENSITY CHANGE    DIIS ERROR      INTEGRALS    SKIPPED
          * * *   INITIATING DIIS PROCEDURE   * * *
   1  0  0      -94.5690211760   -94.5690211760   0.013726869   0.011169971         117645          1
   2  1  0      -94.5695641533    -0.0005429773   0.005132417   0.002406852         117633         14
   3  2  0      -94.5695502928     0.0000138605   0.003541465   0.004692715         117617         21
   4  3  0      -94.5695793670    -0.0000290742   0.000773027   0.001160516         117594         31
 DFT CODE IS SWITCHING BACK TO THE FINE GRID
          * * *   INITIATING DIIS PROCEDURE   * * *
   5  4  0      -94.5684098702     0.0011694968   0.001929520   0.001114943         117645          1
   6  5  0      -94.5684123611    -0.0000024910   0.000355172   0.000290204         117596         36
   7  6  0      -94.5684123651    -0.0000000040   0.000238229   0.000251637         117475         76
   8  7  0      -94.5684124642    -0.0000000991   0.000088245   0.000141276         117346        106
   9  8  0      -94.5684124808    -0.0000000166   0.000016899   0.000028756         117160        173

          -----------------
          DENSITY CONVERGED
          -----------------
     TIME TO FORM FOCK OPERATORS=       2.0 SECONDS (       0.2 SEC/ITER)
     FOCK TIME ON FIRST ITERATION=       0.0, LAST ITERATION=       0.4
     TIME TO SOLVE SCF EQUATIONS=       0.1 SECONDS (       0.0 SEC/ITER)

 FINAL R-B3LYP ENERGY IS      -94.5684124808 AFTER   9 ITERATIONS
 DFT EXCHANGE + CORRELATION ENERGY =       -10.7829300869
 TOTAL ELECTRON NUMBER             =        15.9999985266
 ...... END OF RHF CALCULATION ......
 STEP CPU TIME =     2.04 TOTAL CPU TIME =          7.8 (      0.1 MIN)
 TOTAL WALL CLOCK TIME=          8.1 SECONDS, CPU UTILIZATION IS    96.53%
 ..... END OF 1-ELECTRON GRADIENT ......
 STEP CPU TIME =     0.01 TOTAL CPU TIME =          7.8 (      0.1 MIN)
 TOTAL WALL CLOCK TIME=          8.1 SECONDS, CPU UTILIZATION IS    96.53%
 MEMORY FOR GRID POINT CONTRIBUTIONS TO THE DFT GRADIENT=    347004 WORDS.
 STEP CPU TIME =     0.53 TOTAL CPU TIME =          8.3 (      0.1 MIN)
 TOTAL WALL CLOCK TIME=          8.6 SECONDS, CPU UTILIZATION IS    96.75%
 ...... END OF 2-ELECTRON GRADIENT ......
 STEP CPU TIME =     0.03 TOTAL CPU TIME =          8.4 (      0.1 MIN)
 TOTAL WALL CLOCK TIME=          8.6 SECONDS, CPU UTILIZATION IS    96.76%

          NSERCH=  2     ENERGY=     -94.5684125

                                 -----------------------
                                 GRADIENT (HARTREE/BOHR)
                                 -----------------------
        ATOM     ZNUC       DE/DX         DE/DY         DE/DZ
 --------------------------------------------------------------
    1  C            6.0     0.0067336    -0.0066953     0.0000000
    2  N            7.0    -0.0073354     0.0057661     0.0000000
    3  H            1.0     0.0005710     0.0017674     0.0000000
    4  H            1.0    -0.0008699     0.0001811     0.0000000
    5  H            1.0     0.0009007    -0.0010193     0.0000000

          MAXIMUM GRADIENT = 0.0073354    RMS GRADIENT = 0.0034958

 NSERCH:   2  E=      -94.5684124808  GRAD. MAX=  0.0073354  R.M.S.=  0.0034958

          HESSIAN UPDATED USING THE BFGS FORMULA
             ACTUAL ENERGY CHANGE WAS  -0.0008887863
          PREDICTED ENERGY CHANGE WAS  -0.0010584843 RATIO=  0.840
          MIN SEARCH, CORRECT HESSIAN, TRYING PURE NR STEP
               NR STEP HAS LENGTH         =   0.053737
          RADIUS OF STEP TAKEN=   0.05374  CURRENT TRUST RADIUS=   0.12832

 BEGINNING GEOMETRY SEARCH POINT NSERCH=   3 ...

 COORDINATES OF SYMMETRY UNIQUE ATOMS (ANGS)
   ATOM   CHARGE       X              Y              Z
 ------------------------------------------------------------
 C           6.0  -0.5840308717   0.2614493852   0.0000000000
 N           7.0   0.5535746193  -0.3144539476   0.0000000000
 H           1.0  -1.4765460336  -0.3719531717   0.0000000000
 H           1.0  -0.7379744918   1.3490522130   0.0000000000
 H           1.0   1.3049767779   0.3859055211   0.0000000000
 COORDINATES OF ALL ATOMS ARE (ANGS)
   ATOM   CHARGE       X              Y              Z
 ------------------------------------------------------------
 C           6.0  -0.5840308717   0.2614493852   0.0000000000
 N           7.0   0.5535746193  -0.3144539476   0.0000000000
 H           1.0  -1.4765460336  -0.3719531717   0.0000000000
 H           1.0  -0.7379744918   1.3490522130   0.0000000000
 H           1.0   1.3049767779   0.3859055211   0.0000000000

          INTERNUCLEAR DISTANCES (ANGS.)
          ------------------------------

                1 C          2 N          3 H          4 H          5 H     

   1 C       0.0000000    1.2750729 *  1.0944323 *  1.0984437 *  1.8931031 *
   2 N       1.2750729 *  0.0000000    2.0309348 *  2.1060275 *  1.0271848 *
   3 H       1.0944323 *  2.0309348 *  0.0000000    1.8727914 *  2.8829185 *
   4 H       1.0984437 *  2.1060275 *  1.8727914 *  0.0000000    2.2586061 *
   5 H       1.8931031 *  1.0271848 *  2.8829185 *  2.2586061 *  0.0000000  

  * ... LESS THAN  3.000

 ...... END OF ONE-ELECTRON INTEGRALS ......
 STEP CPU TIME =     0.01 TOTAL CPU TIME =          8.4 (      0.1 MIN)
 TOTAL WALL CLOCK TIME=          8.7 SECONDS, CPU UTILIZATION IS    96.76%
  ...... END OF TWO-ELECTRON INTEGRALS .....
 STEP CPU TIME =     0.00 TOTAL CPU TIME =          8.4 (      0.1 MIN)
 TOTAL WALL CLOCK TIME=          8.7 SECONDS, CPU UTILIZATION IS    96.54%

          --------------------------
             R-B3LYP SCF CALCULATION
          --------------------------
         DENSITY MATRIX CONVERGENCE THRESHOLD=  2.00E-05
     COARSE -> FINE DFT GRID SWITCH THRESHOLD=  3.00E-04 (SWITCH IN $DFT)
                   HF -> DFT SWITCH THRESHOLD=  5.00E-03 (SWOFF IN $DFT)

 DIRECT SCF CALCULATION, SCHWRZ=T   FDIFF=T,  DIRTHR=  0.00E+00 NITDIR=10

 DFT CODE IS SWITCHING FROM THE FINE GRID NRAD= 96,  NLEB=  590
                      TO THE COARSE GRID NRAD0= 24, NLEB0=  110

                                                                                   NONZERO     BLOCKS
 ITER EX DEM     TOTAL ENERGY        E CHANGE  DENSITY CHANGE    DIIS ERROR      INTEGRALS    SKIPPED
          * * *   INITIATING DIIS PROCEDURE   * * *
   1  0  0      -94.5694254702   -94.5694254702   0.011083942   0.005754066         117645          2
   2  1  0      -94.5695461856    -0.0001207154   0.004298600   0.002451019         117629         16
   3  2  0      -94.5695405024     0.0000056831   0.003059281   0.004257567         117601         27
   4  3  0      -94.5695597946    -0.0000192921   0.000582556   0.001023142         117585         37
   5  4  0      -94.5695609856    -0.0000011910   0.000074592   0.000068149         117509         60
 DFT CODE IS SWITCHING BACK TO THE FINE GRID
          * * *   INITIATING DIIS PROCEDURE   * * *
   6  5  0      -94.5684090483     0.0011519373   0.002213611   0.001066770         117645          2
   7  6  0      -94.5684114826    -0.0000024343   0.000664112   0.000393270         117583         40
   8  7  0      -94.5684111982     0.0000002844   0.000388924   0.000683750         117487         71
   9  8  0      -94.5684116833    -0.0000004851   0.000028125   0.000039505         117434         86
  10  9  0      -94.5684116857    -0.0000000023   0.000007699   0.000010815         117073        204
  11 10  0      -94.5684116859    -0.0000000002   0.000002566   0.000002773         116388        324

          -----------------
          DENSITY CONVERGED
          -----------------
     TIME TO FORM FOCK OPERATORS=       2.4 SECONDS (       0.2 SEC/ITER)
     FOCK TIME ON FIRST ITERATION=       0.0, LAST ITERATION=       0.4
     TIME TO SOLVE SCF EQUATIONS=       0.1 SECONDS (       0.0 SEC/ITER)

 FINAL R-B3LYP ENERGY IS      -94.5684116859 AFTER  11 ITERATIONS
 DFT EXCHANGE + CORRELATION ENERGY =       -10.7768197533
 TOTAL ELECTRON NUMBER             =        15.9999982053
 ...... END OF RHF CALCULATION ......
 STEP CPU TIME =     2.48 TOTAL CPU TIME =         10.9 (      0.2 MIN)
 TOTAL WALL CLOCK TIME=         11.2 SECONDS, CPU UTILIZATION IS    96.88%
 ..... END OF 1-ELECTRON GRADIENT ......
 STEP CPU TIME =     0.00 TOTAL CPU TIME =         10.9 (      0.2 MIN)
 TOTAL WALL CLOCK TIME=         11.2 SECONDS, CPU UTILIZATION IS    96.62%
 MEMORY FOR GRID POINT CONTRIBUTIONS TO THE DFT GRADIENT=    347004 WORDS.
 STEP CPU TIME =     0.52 TOTAL CPU TIME =         11.4 (      0.2 MIN)
 TOTAL WALL CLOCK TIME=         11.8 SECONDS, CPU UTILIZATION IS    96.68%
 ...... END OF 2-ELECTRON GRADIENT ......
 STEP CPU TIME =     0.03 TOTAL CPU TIME =         11.4 (      0.2 MIN)
 TOTAL WALL CLOCK TIME=         11.8 SECONDS, CPU UTILIZATION IS    96.69%

          NSERCH=  3     ENERGY=     -94.5684117

                                 -----------------------
                                 GRADIENT (HARTREE/BOHR)
                                 -----------------------
        ATOM     ZNUC       DE/DX         DE/DY         DE/DZ
 --------------------------------------------------------------
    1  C            6.0    -0.0069638     0.0043750     0.0000000
    2  N            7.0     0.0042320    -0.0022582     0.0000000
    3  H            1.0     0.0007394    -0.0025125     0.0000000
    4  H            1.0     0.0022034     0.0004682     0.0000000
    5  H            1.0    -0.0002110    -0.0000724     0.0000000

          MAXIMUM GRADIENT = 0.0069638    RMS GRADIENT = 0.0026157

 NSERCH:   3  E=      -94.5684116859  GRAD. MAX=  0.0069638  R.M.S.=  0.0026157

          HESSIAN UPDATED USING THE BFGS FORMULA
             ACTUAL ENERGY CHANGE WAS   0.0000007949
          PREDICTED ENERGY CHANGE WAS  -0.0001561507 RATIO= -0.005
          MIN SEARCH, CORRECT HESSIAN, TRYING PURE NR STEP
               NR STEP HAS LENGTH         =   0.042014
          RADIUS OF STEP TAKEN=   0.04201  CURRENT TRUST RADIUS=   0.05000

 BEGINNING GEOMETRY SEARCH POINT NSERCH=   4 ...

 COORDINATES OF SYMMETRY UNIQUE ATOMS (ANGS)
   ATOM   CHARGE       X              Y              Z
 ------------------------------------------------------------
 C           6.0  -0.5770358258   0.2555597818   0.0000000000
 N           7.0   0.5594569933  -0.3168673531   0.0000000000
 H           1.0  -1.4824245227  -0.3584530419   0.0000000000
 H           1.0  -0.7474153442   1.3417178430   0.0000000000
 H           1.0   1.3074186993   0.3880427703   0.0000000000
 COORDINATES OF ALL ATOMS ARE (ANGS)
   ATOM   CHARGE       X              Y              Z
 ------------------------------------------------------------
 C           6.0  -0.5770358258   0.2555597818   0.0000000000
 N           7.0   0.5594569933  -0.3168673531   0.0000000000
 H           1.0  -1.4824245227  -0.3584530419   0.0000000000
 H           1.0  -0.7474153442   1.3417178430   0.0000000000
 H           1.0   1.3074186993   0.3880427703   0.0000000000

          INTERNUCLEAR DISTANCES (ANGS.)
          ------------------------------

                1 C          2 N          3 H          4 H          5 H     

   1 C       0.0000000    1.2725128 *  1.0939563 *  1.0994401 *  1.8891058 *
   2 N       1.2725128 *  0.0000000    2.0423049 *  2.1115919 *  1.0277865 *
   3 H       1.0939563 *  2.0423049 *  0.0000000    1.8522472 *  2.8879891 *
   4 H       1.0994401 *  2.1115919 *  1.8522472 *  0.0000000    2.2653563 *
   5 H       1.8891058 *  1.0277865 *  2.8879891 *  2.2653563 *  0.0000000  

  * ... LESS THAN  3.000

 ...... END OF ONE-ELECTRON INTEGRALS ......
 STEP CPU TIME =     0.01 TOTAL CPU TIME =         11.4 (      0.2 MIN)
 TOTAL WALL CLOCK TIME=         11.8 SECONDS, CPU UTILIZATION IS    96.69%
  ...... END OF TWO-ELECTRON INTEGRALS .....
 STEP CPU TIME =     0.00 TOTAL CPU TIME =         11.4 (      0.2 MIN)
 TOTAL WALL CLOCK TIME=         11.8 SECONDS, CPU UTILIZATION IS    96.61%

          --------------------------
             R-B3LYP SCF CALCULATION
          --------------------------
         DENSITY MATRIX CONVERGENCE THRESHOLD=  2.00E-05
     COARSE -> FINE DFT GRID SWITCH THRESHOLD=  3.00E-04 (SWITCH IN $DFT)
                   HF -> DFT SWITCH THRESHOLD=  5.00E-03 (SWOFF IN $DFT)

 DIRECT SCF CALCULATION, SCHWRZ=T   FDIFF=T,  DIRTHR=  0.00E+00 NITDIR=10

 DFT CODE IS SWITCHING FROM THE FINE GRID NRAD= 96,  NLEB=  590
                      TO THE COARSE GRID NRAD0= 24, NLEB0=  110

                                                                                   NONZERO     BLOCKS
 ITER EX DEM     TOTAL ENERGY        E CHANGE  DENSITY CHANGE    DIIS ERROR      INTEGRALS    SKIPPED
          * * *   INITIATING DIIS PROCEDURE   * * *
   1  0  0      -94.5696324548   -94.5696324548   0.002906734   0.003706915         117645          2
   2  1  0      -94.5696682672    -0.0000358124   0.002577116   0.001607622         117622         22
   3  2  0      -94.5696645088     0.0000037584   0.001665808   0.002728882         117588         37
   4  3  0      -94.5696719165    -0.0000074077   0.000182782   0.000317320         117552         43
 DFT CODE IS SWITCHING BACK TO THE FINE GRID
          * * *   INITIATING DIIS PROCEDURE   * * *
   5  4  0      -94.5684829458     0.0011889706   0.002144557   0.001094186         117645          2
   6  5  0      -94.5684854074    -0.0000024616   0.000666545   0.000380425         117589         38
   7  6  0      -94.5684851475     0.0000002600   0.000389946   0.000658731         117496         65
   8  7  0      -94.5684856113    -0.0000004638   0.000042247   0.000055571         117441         82
   9  8  0      -94.5684856150    -0.0000000037   0.000011403   0.000015855         117094        187
  10  9  0      -94.5684856156    -0.0000000006   0.000002437   0.000002609         116487        299

          -----------------
          DENSITY CONVERGED
          -----------------
     TIME TO FORM FOCK OPERATORS=       2.3 SECONDS (       0.2 SEC/ITER)
     FOCK TIME ON FIRST ITERATION=       0.0, LAST ITERATION=       0.4
     TIME TO SOLVE SCF EQUATIONS=       0.0 SECONDS (       0.0 SEC/ITER)

 FINAL R-B3LYP ENERGY IS      -94.5684856156 AFTER  10 ITERATIONS
 DFT EXCHANGE + CORRELATION ENERGY =       -10.7777086797
 TOTAL ELECTRON NUMBER             =        15.9999983774
 ...... END OF RHF CALCULATION ......
 STEP CPU TIME =     2.39 TOTAL CPU TIME =         13.8 (      0.2 MIN)
 TOTAL WALL CLOCK TIME=         14.2 SECONDS, CPU UTILIZATION IS    96.84%
 ..... END OF 1-ELECTRON GRADIENT ......
 STEP CPU TIME =     0.00 TOTAL CPU TIME =         13.8 (      0.2 MIN)
 TOTAL WALL CLOCK TIME=         14.3 SECONDS, CPU UTILIZATION IS    96.71%
 MEMORY FOR GRID POINT CONTRIBUTIONS TO THE DFT GRADIENT=    347004 WORDS.
 STEP CPU TIME =     0.54 TOTAL CPU TIME =         14.3 (      0.2 MIN)
 TOTAL WALL CLOCK TIME=         14.8 SECONDS, CPU UTILIZATION IS    96.89%
 ...... END OF 2-ELECTRON GRADIENT ......
 STEP CPU TIME =     0.02 TOTAL CPU TIME =         14.4 (      0.2 MIN)
 TOTAL WALL CLOCK TIME=         14.8 SECONDS, CPU UTILIZATION IS    96.83%

          NSERCH=  4     ENERGY=     -94.5684856

                                 -----------------------
                                 GRADIENT (HARTREE/BOHR)
                                 -----------------------
        ATOM     ZNUC       DE/DX         DE/DY         DE/DZ
 --------------------------------------------------------------
    1  C            6.0    -0.0012404     0.0001456     0.0000000
    2  N            7.0     0.0024565    -0.0015911     0.0000000
    3  H            1.0    -0.0006835     0.0008372     0.0000000
    4  H            1.0    -0.0004760     0.0000443     0.0000000
    5  H            1.0    -0.0000566     0.0005640     0.0000000

          MAXIMUM GRADIENT = 0.0024565    RMS GRADIENT = 0.0008886

 NSERCH:   4  E=      -94.5684856156  GRAD. MAX=  0.0024565  R.M.S.=  0.0008886

          HESSIAN UPDATED USING THE BFGS FORMULA
             ACTUAL ENERGY CHANGE WAS  -0.0000739297
          PREDICTED ENERGY CHANGE WAS  -0.0001013908 RATIO=  0.729
          MIN SEARCH, CORRECT HESSIAN, TRYING PURE NR STEP
               NR STEP HAS LENGTH         =   0.023385
          RADIUS OF STEP TAKEN=   0.02338  CURRENT TRUST RADIUS=   0.05000

 BEGINNING GEOMETRY SEARCH POINT NSERCH=   5 ...

 COORDINATES OF SYMMETRY UNIQUE ATOMS (ANGS)
   ATOM   CHARGE       X              Y              Z
 ------------------------------------------------------------
 C           6.0  -0.5778856315   0.2590292600   0.0000000000
 N           7.0   0.5546764991  -0.3129642822   0.0000000000
 H           1.0  -1.4774203801  -0.3631311778   0.0000000000
 H           1.0  -0.7497760063   1.3446856333   0.0000000000
 H           1.0   1.3104055188   0.3823805666   0.0000000000
 COORDINATES OF ALL ATOMS ARE (ANGS)
   ATOM   CHARGE       X              Y              Z
 ------------------------------------------------------------
 C           6.0  -0.5778856315   0.2590292600   0.0000000000
 N           7.0   0.5546764991  -0.3129642822   0.0000000000
 H           1.0  -1.4774203801  -0.3631311778   0.0000000000
 H           1.0  -0.7497760063   1.3446856333   0.0000000000
 H           1.0   1.3104055188   0.3823805666   0.0000000000

          INTERNUCLEAR DISTANCES (ANGS.)
          ------------------------------

                1 C          2 N          3 H          4 H          5 H     

   1 C       0.0000000    1.2688079 *  1.0937305 *  1.0991797 *  1.8923158 *
   2 N       1.2688079 *  0.0000000    2.0327160 *  2.1093600 *  1.0269522 *
[...]
 ITER EX DEM     TOTAL ENERGY        E CHANGE  DENSITY CHANGE    DIIS ERROR      INTEGRALS    SKIPPED
          * * *   INITIATING DIIS PROCEDURE   * * *
   1  0  0      -94.5696719261   -94.5696719261   0.002120980   0.001106216         136154          2
   2  1  0      -94.5696768939    -0.0000049679   0.000692484   0.000401153         136104         36
   3  2  0      -94.5696766179     0.0000002760   0.000424715   0.000725451         135989         69
   4  3  0      -94.5696771616    -0.0000005437   0.000041002   0.000063382         135940         80
 DFT CODE IS SWITCHING BACK TO THE FINE GRID
          * * *   INITIATING DIIS PROCEDURE   * * *
   5  4  0      -94.5684975386     0.0011796230   0.002122545   0.001104903         136154          2
   6  5  0      -94.5684999888    -0.0000024502   0.000649526   0.000382970         136097         38
   7  6  0      -94.5684997271     0.0000002617   0.000378845   0.000661046         135984         72
   8  7  0      -94.5685001829    -0.0000004558   0.000029651   0.000042743         135939         81
   9  8  0      -94.5685001854    -0.0000000025   0.000007862   0.000010941         135524        207
  10  9  0      -94.5685001856    -0.0000000002   0.000002573   0.000002858         134672        326

          -----------------
          DENSITY CONVERGED
          -----------------
     TIME TO FORM FOCK OPERATORS=       2.3 SECONDS (       0.2 SEC/ITER)
     FOCK TIME ON FIRST ITERATION=       0.0, LAST ITERATION=       0.4
     TIME TO SOLVE SCF EQUATIONS=       0.0 SECONDS (       0.0 SEC/ITER)

 FINAL R-B3LYP ENERGY IS      -94.5685001856 AFTER  10 ITERATIONS
 DFT EXCHANGE + CORRELATION ENERGY =       -10.7790269411
 TOTAL ELECTRON NUMBER             =        15.9999983473
 ...... END OF RHF CALCULATION ......
 STEP CPU TIME =     2.35 TOTAL CPU TIME =        106.6 (      1.8 MIN)
 TOTAL WALL CLOCK TIME=        109.7 SECONDS, CPU UTILIZATION IS    97.22%
 ..... END OF 1-ELECTRON GRADIENT ......
 STEP CPU TIME =     0.00 TOTAL CPU TIME =        106.6 (      1.8 MIN)
 TOTAL WALL CLOCK TIME=        109.7 SECONDS, CPU UTILIZATION IS    97.21%
 MEMORY FOR GRID POINT CONTRIBUTIONS TO THE DFT GRADIENT=    346989 WORDS.
 STEP CPU TIME =     0.52 TOTAL CPU TIME =        107.2 (      1.8 MIN)
 TOTAL WALL CLOCK TIME=        110.2 SECONDS, CPU UTILIZATION IS    97.21%
 ...... END OF 2-ELECTRON GRADIENT ......
 STEP CPU TIME =     0.03 TOTAL CPU TIME =        107.2 (      1.8 MIN)
 TOTAL WALL CLOCK TIME=        110.3 SECONDS, CPU UTILIZATION IS    97.22%

 UNITS ARE HARTREE/BOHR    E'X               E'Y               E'Z 
    1 C               -0.000121869       0.000046331      -0.000026693
    2 N                0.000059189      -0.000043615       0.000396287
    3 H                0.000019204      -0.000025871      -0.000190099
    4 H                0.000034750       0.000011901       0.000137236
    5 H                0.000008726       0.000011254      -0.000316731
  $VIB   
          IVIB=   2 IATOM=   5 ICOORD=   3 E=      -94.5685001856
 -1.218685915E-04 4.633094014E-05-2.669323129E-05 5.918856340E-05-4.361483735E-05
  3.962869848E-04 1.920356005E-05-2.587132117E-05-1.900990361E-04 3.475014507E-05
  1.190122227E-05 1.372359180E-04 8.726322988E-06 1.125399609E-05-3.167306354E-04
 -5.848776326E-01 1.882778473E+00-6.423640343E-03
 ...... END OF NUMERICAL HESSIAN CALCULATION ......
 STEP CPU TIME =     0.01 TOTAL CPU TIME =        107.2 (      1.8 MIN)
 TOTAL WALL CLOCK TIME=        110.3 SECONDS, CPU UTILIZATION IS    97.21%

          ---------------
          ENERGY GRADIENT
          ---------------

 UNITS ARE HARTREE/BOHR    E'X               E'Y               E'Z 
    1 C               -0.000122352       0.000046893       0.000000000
    2 N                0.000066499      -0.000038222       0.000000000
    3 H                0.000019018      -0.000025950       0.000000000
    4 H                0.000034639       0.000011960       0.000000000
    5 H                0.000002196       0.000005319       0.000000000

          -------------------------------
          CARTESIAN FORCE CONSTANT MATRIX
          -------------------------------

                                   1                          2
                               C                          N         
                          X        Y        Z        X        Y        Z
  1   C            X 0.887562-0.102420-0.000000-0.561564 0.179981-0.000000
                   Y-0.102420 0.682573-0.000000 0.245189-0.220323-0.000000
                   Z-0.000000-0.000000 0.139706 0.000000 0.000000-0.047328
  2   N            X-0.561564 0.245189 0.000000 0.823580-0.061330 0.000000
                   Y 0.179981-0.220323 0.000000-0.061330 0.432361 0.000000
                   Z-0.000000-0.000000-0.047328 0.000000 0.000000 0.063467
  3   H            X-0.217657-0.125308-0.000000-0.037152-0.010994-0.000000
                   Y-0.129121-0.163083 0.000000 0.014631 0.018935 0.000000
                   Z-0.000000-0.000000-0.044432 0.000000 0.000000-0.009273
  4   H            X-0.068253 0.017165 0.000000-0.008499 0.040636 0.000000
                   Y 0.019723-0.301123 0.000000 0.013522-0.014430-0.000000
                   Z 0.000000-0.000000-0.050615 0.000000-0.000000 0.032760
  5   H            X-0.040088-0.034627-0.000000-0.216369-0.148293 0.000000
                   Y 0.031842 0.001952-0.000000-0.212018-0.216542-0.000000
                   Z 0.000000-0.000000 0.002668-0.000000 0.000000-0.039628

                                   3                          4
                               H                          H         
                          X        Y        Z        X        Y        Z
  3   H            X 0.253734 0.132434-0.000000 0.005556 0.003018-0.000000
                   Y 0.132434 0.156899 0.000000-0.022825-0.014205 0.000000
                   Z-0.000000 0.000000 0.026615 0.000000 0.000000 0.008081
  4   H            X 0.005556-0.022825 0.000000 0.067561-0.036289-0.000000
                   Y 0.003018-0.014205 0.000000-0.036289 0.324725 0.000000
                   Z-0.000000 0.000000 0.008081-0.000000 0.000000 0.023495
  5   H            X-0.004480 0.004881-0.000000 0.003635 0.000026-0.000000
                   Y 0.000850 0.001456-0.000000 0.001315 0.005032 0.000000
                   Z 0.000000-0.000000 0.019010-0.000000-0.000000-0.013722

                                   5
                               H         
                          X        Y        Z
  5   H            X 0.257305 0.178012 0.000000
                   Y 0.178012 0.208103 0.000000
                   Z 0.000000 0.000000 0.031673

          ------------------------          ----------------
          DIPOLE DERIVATIVE TENSOR          (DEBYE/ANGSTROM)
          ------------------------          ----------------

        ATOM                 MU-X           MU-Y           MU-Z
     C          D/DX     2.444515893   -0.100671880    0.000000000
                D/DY    -0.227221688    2.301899744    0.000000000
                D/DZ     0.000000000    0.000000000   -0.217740506
     N          D/DX    -2.285749072    0.816141615    0.000000000
                D/DY     1.432726040   -1.504245640    0.000000000
                D/DZ    -0.000000000   -0.000000000   -2.108815914
     H          D/DX    -0.508499607   -0.368744466    0.000000000
                D/DY    -0.386188392   -0.167214746    0.000000000
                D/DZ     0.000000000   -0.000000000    0.402420786
     H          D/DX    -0.056214572    0.147780704    0.000000000
                D/DY     0.338294414   -0.982259393    0.000000000
                D/DZ     0.000000000    0.000000000    0.710149619
     H          D/DX     0.406268913   -0.494351778    0.000000000
                D/DY    -1.157597032    0.351885828    0.000000000
                D/DZ    -0.000000000   -0.000000000    1.213892009

          --------------------------------------------------------
          NORMAL COORDINATE ANALYSIS IN THE HARMONIC APPROXIMATION
          --------------------------------------------------------

          ATOMIC WEIGHTS (AMU)

    1     C                12.00000
    2     N                14.00307
    3     H                 1.00782
    4     H                 1.00782
    5     H                 1.00782

 MODES    1 TO    6 ARE TAKEN AS ROTATIONS AND TRANSLATIONS.

 ANALYZING SYMMETRY OF NORMAL MODES...

 --- SYMMETRY FOR NORMAL MODES ---
 INCLUDING TRANSLATION AND ROTATION
   10*A'     5*A'' 
 EXCLUDING TRANSLATION AND ROTATION (SAYVETZ < 0.01)
    7*A'     2*A'' 

     FREQUENCIES IN CM**-1, IR INTENSITIES IN DEBYE**2/AMU-ANGSTROM**2,
     REDUCED MASSES IN AMU.

                            1           2           3           4           5
       FREQUENCY:         1.95        0.07        0.01        0.59        8.93  
        SYMMETRY:         A'          A''         A'          A'          A'' 
    REDUCED MASS:      2.67425     5.76902     5.80544     4.40105     2.89135
    IR INTENSITY:      0.20791     0.00001     0.00000     0.01914     0.08511

  1   C            X -0.03937619  0.00000000  0.17272486  0.08294905 -0.00000000
                   Y -0.08296904 -0.00000000 -0.06795113  0.20566820 -0.00000000
                   Z  0.00000000  0.18691321 -0.00000000  0.00000000 -0.16293189
  2   N            X  0.09299558  0.00000000  0.17272843  0.04279522  0.00000000
                   Y  0.17935627 -0.00000000 -0.06794417  0.12609057 -0.00000000
                   Z  0.00000000  0.18427335 -0.00000000  0.00000000  0.16635440
  3   H            X  0.10409137  0.00000000  0.17272632  0.03943011 -0.00000000
                   Y -0.29129498 -0.00000000 -0.06795371  0.26885980  0.00000000
                   Z  0.00000000  0.18805361 -0.00000000  0.00000000 -0.34196874
  4   H            X -0.29061750  0.00000000  0.17271943  0.15916119 -0.00000000
                   Y -0.12210841 -0.00000000 -0.06795220  0.21754092 -0.00000000
                   Z  0.00000000  0.18819820 -0.00000000  0.00000000 -0.28905002
  5   H            X -0.06877689  0.00000000  0.17272056  0.09187010 -0.00000000
                   Y  0.35341048 -0.00000000 -0.06793694  0.07328896  0.00000000
                   Z  0.00000000  0.18347701 -0.00000000  0.00000000  0.30190363

 TRANS. SAYVETZ    X  0.57240858  0.00000005  5.01364763  1.88738730  0.00000000
                   Y  1.45544750 -0.00000003 -1.97227847  4.79774272 -0.00000000
                   Z  0.00000000  5.38745984 -0.00000006  0.00000001  0.04259925
               TOTAL  1.56396260  5.38745984  5.38762888  5.15563440  0.04259925

   ROT. SAYVETZ    X  0.00000000  0.02212443 -0.00000000  0.00000000 -2.62047101
                   Y  0.00000000  0.05264731 -0.00000000  0.00000000 -6.71245385
                   Z  7.48327977  0.00000000  0.00019505 -2.27005422  0.00000000
               TOTAL  7.48327977  0.05710717  0.00019505  2.27005422  7.20582438

                            6           7           8           9          10
       FREQUENCY:        18.42     1084.27     1091.01     1175.16     1389.98  
        SYMMETRY:         A''         A'          A''         A''         A'  
    REDUCED MASS:      1.05691     1.07527     1.36821     1.06927     1.39164
    IR INTENSITY:      0.92506     0.84788     0.27690     1.15763     1.04582

  1   C            X -0.00000000 -0.01676807 -0.00000000 -0.00000000 -0.05098812
                   Y -0.00000000 -0.06627874 -0.00000000  0.00000000 -0.09769619
                   Z  0.01786317  0.00000000 -0.14662018 -0.00578065 -0.00000000
  2   N            X  0.00000000  0.02901230  0.00000000  0.00000000  0.00255962
                   Y  0.00000000 -0.00558730 -0.00000000 -0.00000000  0.10461465
                   Z -0.05747828 -0.00000000  0.04566293 -0.06628423  0.00000000
  3   H            X -0.00000000 -0.31431502 -0.00000000  0.00000000 -0.27023148
                   Y -0.00000000  0.37359240  0.00000000 -0.00000000  0.20599538
                   Z -0.54715702 -0.00000000  0.53312365  0.50628780  0.00000000
  4   H            X  0.00000000  0.52799647  0.00000000 -0.00000000  0.35289417
                   Y -0.00000000  0.01035025  0.00000000  0.00000000 -0.03213419
                   Z  0.61071522 -0.00000000  0.64681463 -0.28622550 -0.00000000
  5   H            X  0.00000000 -0.41715019 -0.00000000  0.00000000  0.48888814
                   Y -0.00000000  0.48289445  0.00000000 -0.00000000 -0.46415913
                   Z  0.51978746  0.00000000 -0.06861366  0.76976575  0.00000000

 TRANS. SAYVETZ    X  0.00000000 -0.00001647 -0.00000000 -0.00000000  0.00000831
                   Y -0.00000000  0.00003587  0.00000000 -0.00000000  0.00000244
                   Z -0.00260401  0.00000000 -0.00000010  0.00002288  0.00000000
               TOTAL  0.00260401  0.00003947  0.00000010  0.00002288  0.00000866

   ROT. SAYVETZ    X  2.90488820  0.00000000 -0.00042595 -0.00013581 -0.00000000
                   Y -0.88717538  0.00000000 -0.00113256 -0.00001930  0.00000000
                   Z  0.00000000  0.00007228  0.00000000 -0.00000000  0.00084928
               TOTAL  3.03734351  0.00007228  0.00121001  0.00013718  0.00084928

                           11          12          13          14          15
       FREQUENCY:      1514.53     1734.29     3038.27     3141.88     3401.57  
        SYMMETRY:         A'          A'          A'          A'          A'  
    REDUCED MASS:      1.20930     4.15079     1.06287     1.10757     1.07602
    IR INTENSITY:      0.11389     0.58855     1.20006     0.99146     0.18049

  1   C            X  0.03639453  0.19009761  0.03688408 -0.05796792  0.00225700
                   Y -0.01249770 -0.08464768 -0.05781192 -0.06935745 -0.01100885
                   Z  0.00000000 -0.00000000 -0.00000000  0.00000000 -0.00000000
  2   N            X -0.09827025 -0.13253871 -0.00023121  0.00347230 -0.05490231
                   Y  0.04371230  0.06381973  0.00267640  0.00254731 -0.04190681
                   Z -0.00000000 -0.00000000 -0.00000000 -0.00000000 -0.00000000
  3   H            X  0.40902401 -0.05526779 -0.27936973  0.72758454  0.02026738
                   Y -0.51882892  0.26885908 -0.21817983  0.50883638  0.02210774
                   Z -0.00000000  0.00000000  0.00000000  0.00000000 -0.00000000
  4   H            X  0.60671062 -0.25555150 -0.11428080 -0.05321978 -0.00125849
                   Y  0.04560574 -0.15156475  0.89170722  0.31809328  0.05354569
                   Z -0.00000000  0.00000000  0.00000000 -0.00000000 -0.00000000
  5   H            X -0.08366802 -0.11109826 -0.04230968 -0.03239367  0.71695500
                   Y  0.01467841  0.00387943 -0.02235925 -0.03649343  0.63769674
                   Z  0.00000000  0.00000000 -0.00000000  0.00000000  0.00000000

 TRANS. SAYVETZ    X  0.00000911  0.00000330 -0.00000025  0.00000239  0.00000595
                   Y  0.00000104  0.00002198 -0.00000163  0.00000219  0.00000192
                   Z -0.00000000  0.00000000 -0.00000000  0.00000000 -0.00000000
               TOTAL  0.00000917  0.00002222  0.00000165  0.00000324  0.00000625

   ROT. SAYVETZ    X -0.00000000  0.00000000  0.00000000 -0.00000000 -0.00000000
                   Y -0.00000000 -0.00000000  0.00000000  0.00000000 -0.00000000
                   Z  0.00027283 -0.00039988 -0.00007742  0.00009998  0.00001077
               TOTAL  0.00027283  0.00039988  0.00007742  0.00009998  0.00001077

 REFERENCE ON SAYVETZ CONDITIONS - A. SAYVETZ, J.CHEM.PHYS., 7, 383-389(1939).

 NOTE - THE MODES J,K ARE ORTHONORMALIZED ACCORDING TO
 SUM ON I   M(I) * (X(I,J)*X(I,K) + Y(I,J)*Y(I,K) + Z(I,J)*Z(I,K)) = DELTA(J,K)

  MODE FREQ(CM**-1)  SYMMETRY  RED. MASS  IR INTENS.
     1       1.946    A'       2.674246    0.207912
     2       0.071    A''      5.769017    0.000008
     3       0.007    A'       5.805442    0.000000
     4       0.590    A'       4.401055    0.019141
     5       8.933    A''      2.891352    0.085112
     6      18.422    A''      1.056908    0.925058
     7    1084.269    A'       1.075268    0.847876
     8    1091.006    A''      1.368213    0.276903
     9    1175.162    A''      1.069269    1.157626
    10    1389.982    A'       1.391640    1.045819
    11    1514.533    A'       1.209298    0.113888
    12    1734.289    A'       4.150792    0.588548
    13    3038.268    A'       1.062867    1.200061
    14    3141.881    A'       1.107567    0.991462
    15    3401.567    A'       1.076025    0.180487

     -------------------------------
     THERMOCHEMISTRY AT T=  298.15 K
     -------------------------------

 USING IDEAL GAS, RIGID ROTOR, HARMONIC NORMAL MODE APPROXIMATIONS.
 P=  1.01325E+05 PASCAL.
 ALL FREQUENCIES ARE SCALED BY   1.00000
 THE MOMENTS OF INERTIA ARE (IN AMU*BOHR**2)
              9.16125            51.99138            61.15262
 THE ROTATIONAL SYMMETRY NUMBER IS  1.0
 THE ROTATIONAL CONSTANTS ARE (IN GHZ)
    196.81694    34.68052    29.48505
      7 -     15 VIBRATIONAL MODES ARE USED IN THERMOCHEMISTRY.
 THE HARMONIC ZERO POINT ENERGY IS (SCALED BY   1.000)
        0.040030 HARTREE/MOLECULE     8785.478085 CM**-1/MOLECULE 
       25.118968 KCAL/MOL              105.097760 KJ/MOL

               Q               LN Q
 ELEC.     1.00000E+00       0.000000
 TRANS.    6.14677E+06      15.631437
 ROT.      1.93193E+03       7.566276
 VIB.      1.01624E+00       0.016114
 TOT.      1.20680E+10      23.213827

              E         H         G         CV        CP        S
           KJ/MOL    KJ/MOL    KJ/MOL   J/MOL-K   J/MOL-K   J/MOL-K
 ELEC.      0.000     0.000     0.000     0.000     0.000     0.000
 TRANS.     3.718     6.197   -38.749    12.472    20.786   150.752
 ROT.       3.718     3.718   -18.756    12.472    12.472    75.381
 VIB.     105.321   105.321   105.058     4.253     4.253     0.883
 TOTAL    112.758   115.237    47.552    29.196    37.510   227.016
 VIB. THERMAL CORRECTION E(T)-E(0) = H(T)-H(0) =       223.381 J/MOL

              E         H         G         CV        CP        S
         KCAL/MOL  KCAL/MOL  KCAL/MOL CAL/MOL-K CAL/MOL-K CAL/MOL-K
 ELEC.      0.000     0.000     0.000     0.000     0.000     0.000
 TRANS.     0.889     1.481    -9.261     2.981     4.968    36.031
 ROT.       0.889     0.889    -4.483     2.981     2.981    18.016
 VIB.      25.172    25.172    25.109     1.016     1.016     0.211
 TOTAL     26.950    27.542    11.365     6.978     8.965    54.258
 VIB. THERMAL CORRECTION E(T)-E(0) = H(T)-H(0) =        53.389 CAL/MOL
 ......END OF NORMAL COORDINATE ANALYSIS......
 STEP CPU TIME =     0.00 TOTAL CPU TIME =        107.2 (      1.8 MIN)
 TOTAL WALL CLOCK TIME=        110.3 SECONDS, CPU UTILIZATION IS    97.20%
               1055352  WORDS OF DYNAMIC MEMORY USED
 EXECUTION OF GAMESS TERMINATED NORMALLY Mon Oct  3 21:47:45 2022
 DDI: 263640 bytes (0.3 MB / 0 MWords) used by master data server.

 ----------------------------------------
 CPU timing information for all processes
 ========================================
 0: 105.348 + 1.867 = 107.216
 ----------------------------------------
 ddikick.x: exited gracefully.
----- accounting info -----
Files used on the master node chemcompute-node-1.novalocal were:
-rw-r--r--. 1 chemcomp chemcomp      803 Oct  3 21:45 /scratch/120489/460058.F05
-rw-rw-r--. 1 chemcomp chemcomp 70451200 Oct  3 21:47 /scratch/120489/460058.F10
-rw-rw-r--. 1 chemcomp chemcomp  2720984 Oct  3 21:47 /scratch/120489/460058.F22
Mon Oct  3 21:47:48 UTC 2022
0.096u 0.041s 1:53.68 0.1%	0+0k 8+208io 0pf+0w
Finishing Up...
Looking for IR data...
Looking for Raman data...
vibramans not found
Looking for thermodynamics data...
Looking for UV-Vis data...
chemcompute.org
{'UTCtimestamp': '2022-10-03T21:47:50.550513', 'cluster': 'jetstream2', 'clusterJobNumber': '120489', 'status': 'COMPLETE', 'nodeList': 'chemcompute-node-1'}
120489
